/*--------------------------------*- C++ -*----------------------------------*\
  =========                 |
  \\      /  F ield         | OpenFOAM: The Open Source CFD Toolbox
   \\    /   O peration     | Website:  https://openfoam.org
    \\  /    A nd           | Version:  7
     \\/     M anipulation  |
\*---------------------------------------------------------------------------*/
FoamFile
{
    version     2.0;
    format      ascii;
    class       volScalarField;
    location    "0.000558243009";
    object      C2H;
}
// * * * * * * * * * * * * * * * * * * * * * * * * * * * * * * * * * * * * * //

dimensions      [0 0 0 0 0 0 0];

internalField   nonuniform List<scalar> 
1500
(
4.529116694e-46
4.458174801e-46
3.662183063e-46
3.001084024e-46
2.5790728e-46
2.346876779e-46
2.23251614e-46
2.181585519e-46
2.160962318e-46
2.153220472e-46
2.1503386e-46
2.149072398e-46
2.148280248e-46
2.147628559e-46
2.147052359e-46
2.146554669e-46
2.146142595e-46
2.145813335e-46
2.145556272e-46
2.145358358e-46
2.145208203e-46
2.145097765e-46
2.14502206e-46
2.144977807e-46
2.14496192e-46
2.144970451e-46
2.144998224e-46
2.145039084e-46
2.145086518e-46
2.145134387e-46
2.145177517e-46
2.145212056e-46
2.145235558e-46
2.145246857e-46
2.145245825e-46
2.145233096e-46
2.145209818e-46
2.145177462e-46
2.14513768e-46
2.145092223e-46
2.145042873e-46
2.144991383e-46
2.144939409e-46
2.144888429e-46
2.144839675e-46
2.144794068e-46
2.144752196e-46
2.144714311e-46
2.144680365e-46
2.144650072e-46
2.144622981e-46
2.144598562e-46
2.144576279e-46
2.144555652e-46
2.144536309e-46
2.144518011e-46
2.144500663e-46
2.144484316e-46
2.144469149e-46
2.144455449e-46
2.144443589e-46
2.144433995e-46
2.144427127e-46
2.144423444e-46
2.144423384e-46
2.144427337e-46
2.14443562e-46
2.144448456e-46
2.144465953e-46
2.144488095e-46
2.144514726e-46
2.144545549e-46
2.144580128e-46
2.144617897e-46
2.14465817e-46
2.144700169e-46
2.144743038e-46
2.144785879e-46
2.14482777e-46
2.144867804e-46
2.144905104e-46
2.144938859e-46
2.144968337e-46
2.144992909e-46
2.145012062e-46
2.145025407e-46
2.145032692e-46
2.145033795e-46
2.145028729e-46
2.145017639e-46
2.145000789e-46
2.144978561e-46
2.14495144e-46
2.14492e-46
2.144884892e-46
2.144846827e-46
2.144806552e-46
2.144764838e-46
2.144722454e-46
2.144680148e-46
2.144638625e-46
2.144598531e-46
2.144560431e-46
2.144524794e-46
2.144491985e-46
2.14446225e-46
2.14443572e-46
2.144412407e-46
2.144392212e-46
2.14437494e-46
2.144360312e-46
2.144347983e-46
2.144337568e-46
2.144328662e-46
2.144320861e-46
2.144313784e-46
2.144307092e-46
2.1443005e-46
2.14429379e-46
2.144286813e-46
2.144279492e-46
2.144271816e-46
2.144263835e-46
2.144255648e-46
2.144247391e-46
2.144239224e-46
2.144231321e-46
2.144223851e-46
2.144216981e-46
2.144210856e-46
2.144205606e-46
2.14420134e-46
2.144198147e-46
2.144196101e-46
2.144195268e-46
2.144195707e-46
2.14419748e-46
2.144200656e-46
2.144205312e-46
2.144211537e-46
2.144219432e-46
2.144229104e-46
2.144240666e-46
2.144254225e-46
2.144269882e-46
2.144287715e-46
2.144307776e-46
2.144330084e-46
2.144354612e-46
2.144381291e-46
2.14441e-46
2.144440568e-46
2.144472778e-46
2.144506367e-46
2.144541035e-46
2.144576453e-46
2.144612268e-46
2.144648119e-46
2.14468364e-46
2.144718472e-46
2.14475227e-46
2.144784708e-46
2.144815485e-46
2.144844326e-46
2.144870982e-46
2.144895231e-46
2.144916874e-46
2.144935731e-46
2.144951641e-46
2.144964456e-46
2.144974043e-46
2.144980279e-46
2.144983055e-46
2.144982279e-46
2.144977879e-46
2.144969807e-46
2.144958052e-46
2.144942642e-46
2.144923658e-46
2.144901238e-46
2.144875594e-46
2.144847013e-46
2.144815873e-46
2.144782643e-46
2.144747889e-46
2.144712276e-46
2.144676556e-46
2.14464156e-46
2.144608174e-46
2.144577315e-46
2.14454989e-46
2.144526765e-46
2.144508715e-46
2.144496389e-46
2.144490278e-46
2.14449069e-46
2.144497744e-46
2.144511381e-46
2.144531392e-46
2.144557457e-46
2.144589195e-46
2.14462622e-46
2.144668175e-46
2.144714759e-46
2.144765722e-46
2.144820821e-46
2.144879755e-46
2.144942059e-46
2.145006996e-46
2.14507345e-46
2.145139845e-46
2.145204128e-46
2.145263829e-46
2.145316218e-46
2.145358569e-46
2.145388517e-46
2.145404495e-46
2.145406185e-46
2.145394953e-46
2.145374175e-46
2.145349389e-46
2.145328214e-46
2.145319968e-46
2.145334979e-46
2.14538359e-46
2.145474919e-46
2.145615474e-46
2.145807758e-46
2.146049048e-46
2.146330525e-46
2.146636957e-46
2.146947091e-46
2.147234872e-46
2.147471523e-46
2.147628448e-46
2.147680777e-46
2.1476113e-46
2.147414417e-46
2.147099663e-46
2.146694357e-46
2.146244957e-46
2.145816851e-46
2.145492609e-46
2.145369025e-46
2.145553834e-46
2.146162532e-46
2.147314007e-46
2.149113575e-46
2.151586747e-46
2.154450895e-46
2.155550499e-46
2.155816267e-46
2.156086351e-46
2.156363638e-46
2.156648356e-46
2.156940302e-46
2.157239305e-46
2.157545295e-46
2.157858287e-46
2.158178367e-46
2.158505665e-46
2.158840348e-46
2.15918261e-46
2.159532666e-46
2.159890754e-46
2.160257128e-46
2.160632061e-46
2.161015844e-46
2.161408787e-46
2.161811217e-46
2.162223481e-46
2.162645946e-46
2.163079001e-46
2.163523055e-46
2.163978541e-46
2.164445917e-46
2.164925666e-46
2.165418296e-46
2.165924348e-46
2.166444388e-46
2.166979016e-46
2.167528865e-46
2.168094602e-46
2.168676933e-46
2.1692766e-46
2.169894387e-46
2.170531123e-46
2.171187678e-46
2.171864974e-46
2.172563979e-46
2.173285717e-46
2.174031267e-46
2.174801763e-46
2.175598404e-46
2.176422452e-46
2.177275235e-46
2.178158155e-46
2.179072687e-46
2.180020384e-46
2.181002882e-46
2.182021904e-46
2.183079261e-46
2.184176863e-46
2.185316718e-46
2.186500939e-46
2.187731749e-46
2.189011487e-46
2.190342613e-46
2.191727714e-46
2.193169511e-46
2.194670865e-46
2.196234784e-46
2.197864428e-46
2.199563121e-46
2.201334355e-46
2.203181801e-46
2.205109316e-46
2.207120951e-46
2.209220964e-46
2.211413828e-46
2.21370424e-46
2.216097137e-46
2.218597701e-46
2.221211376e-46
2.22394388e-46
2.226801217e-46
2.229789694e-46
2.232915933e-46
2.236186888e-46
2.239609862e-46
2.243192524e-46
2.246942927e-46
2.25086953e-46
2.254981213e-46
2.259287307e-46
2.263797607e-46
2.268522405e-46
2.273472509e-46
2.278659275e-46
2.284094631e-46
2.28979111e-46
2.295761881e-46
2.302020783e-46
2.308582359e-46
2.315461899e-46
2.322675472e-46
2.330239975e-46
2.338173177e-46
2.346493764e-46
2.355221392e-46
2.364376741e-46
2.37398157e-46
2.38405878e-46
2.394632479e-46
2.405728045e-46
2.417372207e-46
2.429593116e-46
2.442420429e-46
2.455885397e-46
2.470020957e-46
2.484861832e-46
2.500444634e-46
2.516807978e-46
2.533992597e-46
2.552041472e-46
2.570999965e-46
2.59091596e-46
2.611840016e-46
2.633825528e-46
2.656928897e-46
2.681209711e-46
2.706730941e-46
2.733559144e-46
2.761764677e-46
2.791421932e-46
2.822609578e-46
2.855410822e-46
2.889913678e-46
2.926211262e-46
2.964402098e-46
3.00459044e-46
3.046886619e-46
3.091407401e-46
3.138276371e-46
3.187624338e-46
3.239589756e-46
3.29431917e-46
3.351967693e-46
3.412699492e-46
3.47668831e-46
3.544118012e-46
3.61518315e-46
3.690089567e-46
3.769055013e-46
3.852309805e-46
3.940097502e-46
4.032675617e-46
4.130316356e-46
4.233307382e-46
4.341952621e-46
4.456573079e-46
4.577507709e-46
4.705114291e-46
4.839770354e-46
4.981874117e-46
5.131845468e-46
5.290126962e-46
5.457184854e-46
5.633510157e-46
5.81961972e-46
6.016057337e-46
6.223394879e-46
6.442233441e-46
6.673204518e-46
6.916971196e-46
7.174229356e-46
7.445708898e-46
7.732174977e-46
8.034429249e-46
8.353311123e-46
8.689699024e-46
9.044511654e-46
9.41870926e-46
9.813294897e-46
1.022931569e-45
1.066786407e-45
1.113007907e-45
1.161714748e-45
1.213030515e-45
1.267083813e-45
1.32400839e-45
1.383943251e-45
1.447032774e-45
1.513426823e-45
1.583280856e-45
1.656756035e-45
1.734019329e-45
1.815243617e-45
1.900607791e-45
1.990296848e-45
2.084501992e-45
2.183420725e-45
2.287256936e-45
2.396220997e-45
2.510529849e-45
2.630407094e-45
2.75608308e-45
2.887794996e-45
3.025786961e-45
3.170310118e-45
3.32162273e-45
3.479990287e-45
3.645685606e-45
3.81898895e-45
4.000188147e-45
4.189578723e-45
4.387464044e-45
4.594155473e-45
4.80997254e-45
5.03524313e-45
5.270303688e-45
5.51549945e-45
5.771184694e-45
6.037723018e-45
6.315487648e-45
6.604861781e-45
6.906238957e-45
7.220023479e-45
7.546630867e-45
7.886488363e-45
8.240035486e-45
8.607724641e-45
8.990021787e-45
9.387407169e-45
9.800376123e-45
1.022943995e-44
1.067512686e-44
1.113798304e-44
1.161857378e-44
1.211748468e-44
1.263532306e-44
1.317271932e-44
1.373032863e-44
1.430883256e-44
1.490894095e-44
1.553139397e-44
1.617696422e-44
1.684645912e-44
1.754072342e-44
1.826064194e-44
1.900714251e-44
1.978119918e-44
2.058383558e-44
2.141612869e-44
2.227921278e-44
2.317428367e-44
2.41026034e-44
2.506550517e-44
2.606439872e-44
2.710077607e-44
2.817621776e-44
2.929239956e-44
3.045109966e-44
3.165420652e-44
3.290372727e-44
3.42017968e-44
3.555068765e-44
3.69528208e-44
3.841077737e-44
3.992731154e-44
4.1505364e-44
4.314807388e-44
4.485878422e-44
4.664105216e-44
4.849871714e-44
5.043584915e-44
5.245677932e-44
5.456622155e-44
5.676917553e-44
5.907099069e-44
6.147740595e-44
6.399458074e-44
6.662912881e-44
6.93881554e-44
7.22792974e-44
7.531076748e-44
7.849139998e-44
8.183067285e-44
8.533868987e-44
8.902653354e-44
9.290605088e-44
9.698996149e-44
1.012919292e-43
1.058267167e-43
1.106102649e-43
1.156597357e-43
1.209936305e-43
1.266319236e-43
1.32596196e-43
1.389097772e-43
1.455979003e-43
1.526878723e-43
1.602092632e-43
1.681941147e-43
1.766771709e-43
1.856961358e-43
1.952919578e-43
2.055091475e-43
2.163961329e-43
2.280056553e-43
2.403952148e-43
2.536275705e-43
2.677713037e-43
2.829014554e-43
2.991002476e-43
3.164579038e-43
3.350735829e-43
3.550564474e-43
3.765268873e-43
3.99617927e-43
4.244768484e-43
4.512670678e-43
4.801703144e-43
5.113891671e-43
5.451500162e-43
5.817065358e-43
6.213437662e-43
6.643829308e-43
7.111871394e-43
7.621681665e-43
8.177945343e-43
8.786011906e-43
9.452011395e-43
1.018299476e-42
1.098710394e-42
1.187377877e-42
1.285400999e-42
1.394064986e-42
1.514879546e-42
1.649626404e-42
1.800418547e-42
1.969774457e-42
2.160711655e-42
2.376865201e-42
2.62263871e-42
2.903397905e-42
3.225720183e-42
3.597718315e-42
4.029462867e-42
4.533536787e-42
5.125767942e-42
5.826202606e-42
6.660406991e-42
7.661217904e-42
8.871111735e-42
1.034542948e-41
1.215679365e-41
1.440119414e-41
1.720642496e-41
2.074385227e-41
2.524493233e-41
3.102454611e-41
3.851418195e-41
4.830944591e-41
6.123856931e-41
7.846192381e-41
1.016176923e-40
1.330368155e-40
1.760628094e-40
2.355317482e-40
3.184990901e-40
4.353506122e-40
6.015179169e-40
8.40163081e-40
1.186483294e-39
1.695035856e-39
2.45420052e-39
3.623958847e-39
5.570533841e-39
9.444873773e-39
1.98265376e-38
5.680788889e-38
2.123937805e-37
9.331240858e-37
4.303035872e-36
1.961633581e-35
8.834395976e-35
3.897833686e-34
1.671200298e-33
6.891957434e-33
2.692005641e-32
9.695200315e-32
3.051205675e-31
7.276226689e-31
3.85534115e-31
0
0
0
0
0
0
0
3.366110915e-25
5.764255877e-24
4.909892786e-23
3.38647991e-22
1.886182275e-21
7.897657949e-21
2.56374421e-20
6.824830716e-20
1.571801108e-19
3.262726966e-19
6.278930971e-19
1.141114909e-18
1.981863556e-18
3.314977898e-18
5.368295445e-18
8.449287217e-18
1.296552156e-17
1.945114978e-17
2.860253319e-17
4.132689535e-17
5.880864366e-17
8.259876115e-17
1.147340518e-16
1.578944911e-16
2.156096565e-16
2.925277523e-16
3.947646368e-16
5.303547406e-16
7.098321242e-16
9.469798354e-16
1.259802053e-15
1.671801197e-15
2.213686761e-15
2.925709725e-15
3.860908055e-15
5.089660585e-15
6.706064656e-15
8.836755616e-15
1.165285244e-14
1.53857386e-14
2.034740441e-14
2.69561789e-14
3.576902466e-14
4.752237813e-14
6.318505024e-14
8.402924645e-14
1.117296534e-13
1.485062195e-13
1.973343845e-13
2.622583489e-13
3.488609077e-13
4.649733337e-13
6.217673514e-13
8.354872744e-13
1.130349255e-12
1.543635963e-12
2.135892801e-12
3.008871454e-12
4.348799172e-12
6.498091436e-12
1.010848632e-11
1.633516207e-11
2.974279747e-11
5.507175988e-11
1.002273124e-10
1.77580728e-10
3.060704792e-10
5.146064535e-10
8.476256593e-10
1.372909802e-09
2.193815376e-09
3.467746404e-09
5.456053313e-09
8.456679864e-09
1.298586696e-08
1.972181353e-08
2.966944786e-08
4.382650983e-08
6.375366534e-08
9.122999511e-08
1.286536065e-07
1.776740508e-07
2.403412532e-07
3.177527773e-07
4.096863265e-07
5.138247744e-07
6.255604056e-07
7.386816158e-07
8.436728607e-07
9.327774495e-07
9.985227479e-07
1.036910292e-06
1.0469493e-06
1.030628412e-06
9.920318657e-07
9.358875989e-07
8.67533361e-07
7.924269257e-07
7.148745447e-07
6.382747385e-07
5.64967491e-07
4.963847281e-07
4.334346381e-07
3.765811819e-07
3.256909391e-07
2.81270984e-07
2.421896937e-07
2.076883201e-07
1.777623264e-07
1.51912696e-07
1.296551914e-07
1.105398803e-07
9.415855039e-08
8.015861129e-08
6.819301647e-08
5.798917091e-08
4.929797836e-08
4.190250644e-08
3.561465781e-08
3.027196681e-08
2.573458146e-08
2.188246999e-08
1.861287351e-08
1.583801206e-08
1.348304063e-08
1.148424369e-08
9.78745228e-09
8.346664636e-09
7.122850598e-09
6.082919406e-09
5.198832527e-09
4.446842917e-09
3.806844678e-09
3.261818366e-09
2.797358752e-09
2.401273453e-09
2.063242265e-09
1.774528357e-09
1.527733681e-09
1.31659198e-09
1.135793751e-09
9.808382919e-10
8.479087039e-10
7.337663109e-10
6.356615038e-10
5.512584593e-10
4.785715748e-10
4.15911795e-10
3.618412822e-10
3.151351282e-10
2.747490026e-10
2.397918109e-10
2.095025752e-10
1.832308792e-10
1.604203185e-10
1.405944875e-10
1.233451074e-10
1.083219622e-10
9.522436159e-11
8.379389419e-11
7.380827219e-11
6.507609879e-11
5.743241689e-11
5.073491951e-11
4.48607208e-11
3.970360272e-11
3.517166513e-11
3.118531866e-11
2.767556879e-11
2.458254761e-11
2.185425651e-11
1.944548835e-11
1.731690291e-11
1.543423287e-11
1.376760142e-11
1.229093524e-11
1.098145904e-11
9.819259937e-12
8.786911693e-12
7.86915029e-12
7.052593551e-12
6.32549862e-12
5.677552005e-12
5.099687631e-12
4.58392904e-12
4.123252393e-12
3.711467437e-12
3.343113985e-12
3.01337181e-12
2.717982134e-12
2.453179183e-12
2.215630439e-12
2.002384455e-12
1.810825237e-12
1.638632324e-12
1.483745828e-12
1.3443358e-12
1.21877535e-12
1.105617055e-12
1.003572228e-12
9.114926908e-13
8.283547303e-13
7.532449723e-13
6.853479286e-13
6.239350128e-13
5.68354845e-13
5.180246852e-13
4.724228614e-13
4.310820698e-13
3.935834427e-13
3.595512938e-13
3.286484579e-13
3.005721571e-13
2.750503298e-13
2.518383699e-13
2.307162267e-13
2.114858259e-13
1.939687728e-13
1.780043062e-13
1.634474757e-13
1.50167514e-13
1.38046386e-13
1.269774914e-13
1.168645067e-13
1.076203489e-13
9.916624811e-14
9.14309184e-14
8.434981393e-14
7.786446283e-14
7.192186971e-14
6.64739795e-14
6.147719613e-14
5.689195012e-14
5.268230994e-14
4.881563257e-14
4.526224904e-14
4.199518137e-14
3.898988758e-14
3.622403201e-14
3.367727811e-14
3.133110157e-14
2.916862174e-14
2.717444931e-14
2.533454874e-14
2.363611395e-14
2.206745586e-14
2.061790068e-14
1.927769789e-14
1.803793683e-14
1.689047118e-14
1.582785057e-14
1.484325844e-14
1.393045583e-14
1.308373021e-14
1.229784916e-14
1.156801821e-14
1.088984255e-14
1.025929228e-14
9.672670703e-15
9.126585582e-15
8.617922925e-15
8.143823129e-15
7.701659256e-15
7.289017231e-15
6.903677805e-15
6.543600098e-15
6.206906587e-15
5.891869416e-15
5.596897893e-15
5.320527074e-15
5.061407338e-15
4.818294855e-15
4.590042881e-15
4.375593792e-15
4.173971799e-15
3.984276286e-15
3.805675706e-15
3.637402e-15
3.478745477e-15
3.329050134e-15
3.187709353e-15
3.054161974e-15
2.927888678e-15
2.808408677e-15
2.695276678e-15
2.588080093e-15
2.486436479e-15
2.389991188e-15
2.298415206e-15
2.211403172e-15
2.128671549e-15
2.049956954e-15
1.975014609e-15
1.903616929e-15
1.835552212e-15
1.77062344e-15
1.708647174e-15
1.649452534e-15
1.59288026e-15
1.538781853e-15
1.487018769e-15
1.437461693e-15
1.389989859e-15
1.344490424e-15
1.300857891e-15
1.258993581e-15
1.218805138e-15
1.180206077e-15
1.143115365e-15
1.107457034e-15
1.073159823e-15
1.040156849e-15
1.008385297e-15
9.777861431e-16
9.483038867e-16
9.198863127e-16
8.924842655e-16
8.660514412e-16
8.405441954e-16
8.159213655e-16
7.921441048e-16
7.691757295e-16
7.469815762e-16
7.255288707e-16
7.047866044e-16
6.847254223e-16
6.653175161e-16
6.465365273e-16
6.283574549e-16
6.107565718e-16
5.937113447e-16
5.772003615e-16
5.612032639e-16
5.45700682e-16
5.306741765e-16
5.16106183e-16
5.01979961e-16
4.882795458e-16
4.749897031e-16
4.620958882e-16
4.495842065e-16
4.374413775e-16
4.256547e-16
4.142120211e-16
4.031017053e-16
3.923126085e-16
3.8183405e-16
3.716557892e-16
3.617680022e-16
3.521612607e-16
3.428265113e-16
3.337550573e-16
3.249385406e-16
3.163689248e-16
3.080384797e-16
2.999397668e-16
2.920656251e-16
2.844091582e-16
2.769637217e-16
2.697229119e-16
2.626805548e-16
2.558306954e-16
2.491675888e-16
2.426856901e-16
2.363796465e-16
2.302442882e-16
2.24274621e-16
2.184658193e-16
2.128132184e-16
2.073123085e-16
2.01958728e-16
1.967482575e-16
1.916768149e-16
1.867404491e-16
1.81935335e-16
1.772577691e-16
1.727041646e-16
1.682710473e-16
1.639550506e-16
1.597529123e-16
1.556614705e-16
1.516776599e-16
1.477985084e-16
1.440211339e-16
1.403427408e-16
1.367606172e-16
1.332721319e-16
1.298747317e-16
1.265659386e-16
1.233433476e-16
1.202046238e-16
1.171475002e-16
1.141697758e-16
1.112693129e-16
1.084440353e-16
1.056919265e-16
1.030110272e-16
1.00399434e-16
9.785529776e-17
9.537682123e-17
9.296225781e-17
9.060991016e-17
8.831812819e-17
8.608530798e-17
8.390989039e-17
8.179035943e-17
7.972524107e-17
7.771310205e-17
7.575254855e-17
7.38422251e-17
7.198081337e-17
7.016703109e-17
6.839963097e-17
6.667739981e-17
6.49991572e-17
6.33637549e-17
6.177007577e-17
6.021703265e-17
5.870356801e-17
5.722865259e-17
5.579128489e-17
5.439049022e-17
5.302532008e-17
5.169485125e-17
5.039818527e-17
4.913444757e-17
4.79027869e-17
4.670237469e-17
4.553240435e-17
4.439209073e-17
4.328066933e-17
4.2197396e-17
4.114154616e-17
4.011241451e-17
3.910931423e-17
3.81315766e-17
3.717855047e-17
3.624960183e-17
3.534411327e-17
3.446148364e-17
3.360112751e-17
3.276247476e-17
3.19449701e-17
3.114807285e-17
3.037125634e-17
2.961400776e-17
2.887582756e-17
2.815622926e-17
2.745473898e-17
2.677089517e-17
2.610424826e-17
2.545436031e-17
2.482080483e-17
2.420316624e-17
2.360103983e-17
2.301403141e-17
2.244175679e-17
2.188384186e-17
2.133992209e-17
2.080964237e-17
2.029265673e-17
1.978862819e-17
1.929722839e-17
1.881813739e-17
1.835104348e-17
1.789564303e-17
1.745164012e-17
1.70187465e-17
1.659668129e-17
1.618517082e-17
1.578394839e-17
1.539275418e-17
1.501133497e-17
1.46394441e-17
1.427684118e-17
1.392329196e-17
1.357856814e-17
1.324244731e-17
1.291471271e-17
1.259515308e-17
1.228356257e-17
1.197974066e-17
1.168349185e-17
1.139462559e-17
1.111295623e-17
1.083830288e-17
1.057048917e-17
1.030934326e-17
1.005469764e-17
9.806389111e-18
9.564258629e-18
9.328151116e-18
9.09791544e-18
8.873404326e-18
8.654474246e-18
8.440985275e-18
8.232801084e-18
8.029788741e-18
7.831818689e-18
7.638764657e-18
7.450503591e-18
7.266915495e-18
7.087883428e-18
6.913293462e-18
6.743034508e-18
6.576998275e-18
6.41507915e-18
6.257174285e-18
6.103183367e-18
5.953008609e-18
5.806554684e-18
5.663728753e-18
5.524440204e-18
5.388600771e-18
5.256124394e-18
5.12692718e-18
5.00092734e-18
4.878045161e-18
4.758202919e-18
4.641324853e-18
4.527337094e-18
4.416167606e-18
4.307746229e-18
4.202004535e-18
4.098875809e-18
3.998294973e-18
3.900198639e-18
3.804524981e-18
3.711213723e-18
3.620206086e-18
3.5314448e-18
3.444873987e-18
3.360439181e-18
3.278087341e-18
3.197766659e-18
3.119426656e-18
3.043018119e-18
2.968493044e-18
2.895804649e-18
2.824907317e-18
2.755756569e-18
2.688309059e-18
2.6225225e-18
2.558355615e-18
2.495768183e-18
2.434721003e-18
2.375175827e-18
2.317095372e-18
2.26044327e-18
2.205184054e-18
2.151283154e-18
2.098706821e-18
2.047422159e-18
1.997397064e-18
1.948600262e-18
1.901001225e-18
1.854570198e-18
1.809278122e-18
1.765096667e-18
1.721998182e-18
1.679955711e-18
1.638942923e-18
1.598934174e-18
1.559904374e-18
1.521829102e-18
1.484684504e-18
1.448447284e-18
1.413094707e-18
1.378604606e-18
1.344955317e-18
1.312125703e-18
1.280095128e-18
1.248843408e-18
1.218350831e-18
1.18859818e-18
1.159566658e-18
1.131237872e-18
1.103593879e-18
1.076617134e-18
1.050290485e-18
1.024597155e-18
9.995207511e-19
9.750452179e-19
9.511548868e-19
9.278344151e-19
9.05068754e-19
8.828432236e-19
8.611434278e-19
8.399552886e-19
8.192650424e-19
7.990591792e-19
7.793244995e-19
7.600480955e-19
7.412173004e-19
7.228197429e-19
7.048433049e-19
6.872761353e-19
6.701066625e-19
6.533235199e-19
6.369156138e-19
6.208720531e-19
6.051821819e-19
5.898355452e-19
5.748218448e-19
5.601309497e-19
5.457529015e-19
5.316778768e-19
5.178962663e-19
4.080476131e-19
2.880944594e-19
2.038565565e-19
1.444456765e-19
1.023830432e-19
7.25448272e-20
5.136486352e-20
3.633373814e-20
2.567407638e-20
1.812240002e-20
1.277902504e-20
9.003362401e-21
6.339092515e-21
4.461827358e-21
3.141344765e-21
2.213889054e-21
1.563471615e-21
1.108327539e-21
7.904117628e-22
5.688380832e-22
4.148450498e-22
3.080192395e-22
2.342428238e-22
1.836261893e-22
1.490899407e-22
1.258073774e-22
1.103478136e-22
1.003699639e-22
9.421735332e-23
9.075893862e-23
8.920647487e-23
8.903287746e-23
8.984391661e-23
9.139512572e-23
9.351996697e-23
9.608456795e-23
9.901462498e-23
1.022615361e-22
1.057881157e-22
1.095681836e-22
1.135981948e-22
1.178554041e-22
1.223405974e-22
1.27044302e-22
1.319505366e-22
1.370504304e-22
1.423428275e-22
1.478375501e-22
1.534912476e-22
1.593236275e-22
1.653067121e-22
1.71419637e-22
1.776292066e-22
1.839504652e-22
1.903473004e-22
1.967906005e-22
2.032348966e-22
2.09670635e-22
2.160811305e-22
2.224240428e-22
2.286893604e-22
2.348266036e-22
2.408379148e-22
2.46680683e-22
2.52332456e-22
2.577767662e-22
2.629966342e-22
2.679742686e-22
2.726970846e-22
2.77157193e-22
2.813444369e-22
2.852631725e-22
2.889069785e-22
2.922778323e-22
2.953838667e-22
2.982208012e-22
3.008078305e-22
3.031557575e-22
3.052718505e-22
3.071734766e-22
3.088673779e-22
3.103749402e-22
3.117117185e-22
3.128915371e-22
3.139181694e-22
3.148145419e-22
3.155936054e-22
3.162671929e-22
3.168463641e-22
3.173414539e-22
3.17762306e-22
3.181178157e-22
3.184165983e-22
3.186659932e-22
3.188726461e-22
3.190416499e-22
3.191784119e-22
3.192874168e-22
3.193719918e-22
3.194359522e-22
3.19482094e-22
3.195130861e-22
3.195311831e-22
3.195382863e-22
3.195362895e-22
3.195268235e-22
3.195114157e-22
3.194911987e-22
3.194672116e-22
3.194407345e-22
3.194127459e-22
3.193839194e-22
3.193550798e-22
3.193268499e-22
3.192996935e-22
3.192739772e-22
3.192500728e-22
3.192280367e-22
3.192082072e-22
3.191905668e-22
3.191748407e-22
3.19161296e-22
3.191493931e-22
3.191390696e-22
3.191302523e-22
3.191224102e-22
3.191155119e-22
3.191091204e-22
3.191032001e-22
3.190972477e-22
3.190912833e-22
3.190851554e-22
3.190787096e-22
3.190718684e-22
3.190648286e-22
3.190569887e-22
3.190488473e-22
3.190403427e-22
3.190315976e-22
3.190223211e-22
3.190130854e-22
3.190037975e-22
3.18994673e-22
3.189854074e-22
3.189766511e-22
3.189682211e-22
3.189599933e-22
3.189522399e-22
3.189448593e-22
3.189379307e-22
3.189315863e-22
3.189256114e-22
3.189201321e-22
3.189148725e-22
3.189099183e-22
3.189055906e-22
3.189012845e-22
3.188975201e-22
3.188936984e-22
3.1889023e-22
3.188869281e-22
3.188836663e-22
3.188805272e-22
3.18877736e-22
3.188749457e-22
3.188721634e-22
3.188695176e-22
3.18866937e-22
3.188644261e-22
3.188620103e-22
3.188596322e-22
3.188574418e-22
3.188552167e-22
3.188532981e-22
3.188513853e-22
3.188495898e-22
3.188479424e-22
3.188463381e-22
3.188448191e-22
3.1884353e-22
3.188423643e-22
3.188413657e-22
3.188404466e-22
3.188397445e-22
3.188391572e-22
3.188387878e-22
3.188385824e-22
3.188387023e-22
3.188388763e-22
3.188390964e-22
3.188396083e-22
3.188403215e-22
3.188410752e-22
3.188420762e-22
3.188431181e-22
3.188442749e-22
3.188456971e-22
3.188469359e-22
3.188483343e-22
3.188495964e-22
3.188509309e-22
3.188523698e-22
3.188538129e-22
3.188550859e-22
3.188562831e-22
3.188575573e-22
3.188586646e-22
3.188595135e-22
3.188603162e-22
3.188611913e-22
3.188616265e-22
3.188620345e-22
3.188622608e-22
3.188624589e-22
3.188623936e-22
3.188621648e-22
3.18861928e-22
3.188615807e-22
3.188608852e-22
3.188601037e-22
3.188592642e-22
3.18858417e-22
3.188573271e-22
3.188561922e-22
3.188549972e-22
3.188535889e-22
3.188521964e-22
3.188509216e-22
3.188494067e-22
3.188479447e-22
3.188464793e-22
3.188450082e-22
3.188433032e-22
3.18842035e-22
3.18840465e-22
3.188391162e-22
3.188378616e-22
3.188364217e-22
3.188350988e-22
3.188336914e-22
3.188325803e-22
3.188313705e-22
3.18830287e-22
3.188294621e-22
3.188283999e-22
3.188274668e-22
3.188267453e-22
3.188261888e-22
3.188254288e-22
3.188248882e-22
)
;

boundaryField
{
    inlet
    {
        type            fixedValue;
        value           uniform 0;
    }
    outlet
    {
        type            zeroGradient;
    }
    wall
    {
        type            empty;
    }
}


// ************************************************************************* //
