/*--------------------------------*- C++ -*----------------------------------*\
  =========                 |
  \\      /  F ield         | OpenFOAM: The Open Source CFD Toolbox
   \\    /   O peration     | Website:  https://openfoam.org
    \\  /    A nd           | Version:  7
     \\/     M anipulation  |
\*---------------------------------------------------------------------------*/
FoamFile
{
    version     2.0;
    format      ascii;
    class       volScalarField;
    location    "0.000558243009";
    object      C2H2;
}
// * * * * * * * * * * * * * * * * * * * * * * * * * * * * * * * * * * * * * //

dimensions      [0 0 0 0 0 0 0];

internalField   nonuniform List<scalar> 
1500
(
1.423313937e-12
5.571406576e-12
1.150617435e-11
1.731308706e-11
2.168052185e-11
2.43744571e-11
2.578952608e-11
2.64375741e-11
2.670065482e-11
2.679657698e-11
2.682833515e-11
2.683797211e-11
2.684067366e-11
2.684137806e-11
2.684154988e-11
2.684158929e-11
2.684159783e-11
2.684159958e-11
2.684159992e-11
2.684159999e-11
2.68416e-11
2.68416e-11
2.68416e-11
2.68416e-11
2.68416e-11
2.68416e-11
2.68416e-11
2.68416e-11
2.68416e-11
2.68416e-11
2.68416e-11
2.68416e-11
2.68416e-11
2.68416e-11
2.68416e-11
2.68416e-11
2.68416e-11
2.68416e-11
2.68416e-11
2.68416e-11
2.68416e-11
2.68416e-11
2.68416e-11
2.68416e-11
2.68416e-11
2.68416e-11
2.68416e-11
2.68416e-11
2.68416e-11
2.68416e-11
2.68416e-11
2.68416e-11
2.68416e-11
2.68416e-11
2.68416e-11
2.68416e-11
2.68416e-11
2.68416e-11
2.68416e-11
2.68416e-11
2.68416e-11
2.68416e-11
2.68416e-11
2.68416e-11
2.68416e-11
2.68416e-11
2.68416e-11
2.68416e-11
2.68416e-11
2.68416e-11
2.68416e-11
2.68416e-11
2.68416e-11
2.68416e-11
2.68416e-11
2.68416e-11
2.68416e-11
2.68416e-11
2.68416e-11
2.68416e-11
2.68416e-11
2.68416e-11
2.68416e-11
2.68416e-11
2.68416e-11
2.68416e-11
2.68416e-11
2.68416e-11
2.68416e-11
2.68416e-11
2.68416e-11
2.68416e-11
2.68416e-11
2.68416e-11
2.68416e-11
2.68416e-11
2.68416e-11
2.68416e-11
2.68416e-11
2.68416e-11
2.68416e-11
2.68416e-11
2.68416e-11
2.68416e-11
2.68416e-11
2.68416e-11
2.68416e-11
2.68416e-11
2.68416e-11
2.68416e-11
2.68416e-11
2.68416e-11
2.68416e-11
2.68416e-11
2.68416e-11
2.68416e-11
2.68416e-11
2.68416e-11
2.68416e-11
2.68416e-11
2.68416e-11
2.68416e-11
2.68416e-11
2.68416e-11
2.68416e-11
2.68416e-11
2.68416e-11
2.68416e-11
2.68416e-11
2.68416e-11
2.68416e-11
2.68416e-11
2.68416e-11
2.68416e-11
2.68416e-11
2.68416e-11
2.68416e-11
2.68416e-11
2.68416e-11
2.68416e-11
2.68416e-11
2.68416e-11
2.68416e-11
2.68416e-11
2.68416e-11
2.68416e-11
2.68416e-11
2.68416e-11
2.68416e-11
2.68416e-11
2.68416e-11
2.68416e-11
2.68416e-11
2.68416e-11
2.68416e-11
2.68416e-11
2.68416e-11
2.68416e-11
2.68416e-11
2.68416e-11
2.68416e-11
2.68416e-11
2.68416e-11
2.68416e-11
2.68416e-11
2.68416e-11
2.68416e-11
2.68416e-11
2.68416e-11
2.68416e-11
2.68416e-11
2.68416e-11
2.68416e-11
2.68416e-11
2.68416e-11
2.68416e-11
2.68416e-11
2.68416e-11
2.68416e-11
2.68416e-11
2.68416e-11
2.68416e-11
2.68416e-11
2.68416e-11
2.68416e-11
2.68416e-11
2.68416e-11
2.68416e-11
2.68416e-11
2.68416e-11
2.68416e-11
2.68416e-11
2.68416e-11
2.68416e-11
2.68416e-11
2.68416e-11
2.68416e-11
2.68416e-11
2.68416e-11
2.68416e-11
2.68416e-11
2.68416e-11
2.68416e-11
2.68416e-11
2.68416e-11
2.68416e-11
2.68416e-11
2.68416e-11
2.68416e-11
2.68416e-11
2.68416e-11
2.68416e-11
2.68416e-11
2.68416e-11
2.68416e-11
2.68416e-11
2.68416e-11
2.68416e-11
2.68416e-11
2.68416e-11
2.68416e-11
2.68416e-11
2.68416e-11
2.68416e-11
2.68416e-11
2.68416e-11
2.68416e-11
2.68416e-11
2.68416e-11
2.68416e-11
2.68416e-11
2.68416e-11
2.68416e-11
2.68416e-11
2.684160001e-11
2.684160004e-11
2.684160015e-11
2.684160054e-11
2.684160183e-11
2.684160589e-11
2.684161802e-11
2.684165218e-11
2.684174289e-11
2.684196912e-11
2.684249714e-11
2.684364393e-11
2.684594087e-11
2.685011879e-11
2.685681219e-11
2.686557042e-11
2.686926092e-11
2.687022467e-11
2.68712259e-11
2.687226685e-11
2.687334929e-11
2.687447494e-11
2.68756456e-11
2.687686324e-11
2.687812999e-11
2.687944809e-11
2.688081995e-11
2.688224809e-11
2.688373518e-11
2.6885284e-11
2.688689748e-11
2.688857872e-11
2.689033096e-11
2.689215762e-11
2.689406228e-11
2.689604873e-11
2.689812095e-11
2.690028313e-11
2.690253967e-11
2.690489523e-11
2.690735468e-11
2.690992316e-11
2.691260607e-11
2.691540912e-11
2.691833829e-11
2.692139988e-11
2.692460051e-11
2.692794716e-11
2.693144717e-11
2.693510824e-11
2.693893848e-11
2.694294643e-11
2.694714105e-11
2.695153176e-11
2.695612848e-11
2.696094161e-11
2.69659821e-11
2.697126142e-11
2.697679166e-11
2.698258548e-11
2.69886562e-11
2.699501778e-11
2.700168489e-11
2.700867291e-11
2.701599798e-11
2.702367703e-11
2.70317278e-11
2.704016891e-11
2.704901986e-11
2.705830109e-11
2.7068034e-11
2.707824102e-11
2.708894563e-11
2.710017239e-11
2.711194704e-11
2.712429646e-11
2.71372488e-11
2.715083348e-11
2.716508125e-11
2.718002426e-11
2.719569606e-11
2.721213173e-11
2.722936787e-11
2.724744268e-11
2.726639602e-11
2.728626947e-11
2.730710638e-11
2.732895195e-11
2.735185325e-11
2.737585935e-11
2.740102131e-11
2.742739232e-11
2.74550277e-11
2.748398501e-11
2.751432411e-11
2.754610722e-11
2.757939899e-11
2.76142666e-11
2.76507798e-11
2.768901098e-11
2.772903528e-11
2.777093063e-11
2.781477784e-11
2.786066067e-11
2.79086659e-11
2.795888343e-11
2.801140631e-11
2.806633086e-11
2.812375674e-11
2.818378699e-11
2.824652813e-11
2.831209026e-11
2.838058707e-11
2.845213598e-11
2.852685817e-11
2.860487864e-11
2.868632635e-11
2.87713342e-11
2.886003916e-11
2.89525823e-11
2.90491089e-11
2.914976843e-11
2.925471472e-11
2.93641059e-11
2.947810457e-11
2.959687775e-11
2.972059701e-11
2.984943848e-11
2.998358288e-11
3.012321561e-11
3.026852673e-11
3.041971106e-11
3.057696815e-11
3.074050234e-11
3.091052277e-11
3.108724342e-11
3.12708831e-11
3.146166548e-11
3.165981907e-11
3.186557726e-11
3.207917829e-11
3.230086525e-11
3.253088606e-11
3.276949348e-11
3.301694504e-11
3.327350306e-11
3.353943459e-11
3.381501137e-11
3.41005098e-11
3.439621091e-11
3.470240024e-11
3.501936785e-11
3.534740824e-11
3.568682023e-11
3.603790697e-11
3.640097577e-11
3.677633811e-11
3.716430946e-11
3.756520924e-11
3.797936072e-11
3.840709087e-11
3.884873032e-11
3.930461319e-11
3.977507702e-11
4.026046262e-11
4.076111394e-11
4.1277378e-11
4.180960468e-11
4.235814666e-11
4.292335927e-11
4.350560033e-11
4.410523004e-11
4.472261084e-11
4.535810727e-11
4.601208585e-11
4.668491491e-11
4.737696451e-11
4.808860627e-11
4.882021324e-11
4.957215981e-11
5.034482157e-11
5.113857516e-11
5.195379823e-11
5.279086927e-11
5.365016754e-11
5.453207299e-11
5.543696616e-11
5.636522812e-11
5.731724038e-11
5.829338488e-11
5.929404391e-11
6.031960011e-11
6.137043646e-11
6.244693625e-11
6.354948311e-11
6.467846108e-11
6.583425459e-11
6.70172486e-11
6.822782865e-11
6.946638098e-11
7.073329264e-11
7.202895171e-11
7.335374739e-11
7.470807029e-11
7.609231259e-11
7.750686834e-11
7.895213375e-11
8.042850747e-11
8.193639098e-11
8.347618893e-11
8.504830959e-11
8.665316529e-11
8.829117287e-11
8.996275426e-11
9.166833696e-11
9.340835473e-11
9.518324815e-11
9.699346536e-11
9.883946273e-11
1.007217057e-10
1.026406694e-10
1.0459684e-10
1.065907148e-10
1.086228041e-10
1.106936316e-10
1.128037355e-10
1.1495367e-10
1.171440061e-10
1.193753328e-10
1.216482587e-10
1.239634132e-10
1.263214477e-10
1.287230373e-10
1.311688821e-10
1.336597091e-10
1.361962735e-10
1.387793606e-10
1.414097877e-10
1.440884056e-10
1.468161008e-10
1.495937974e-10
1.524224592e-10
1.553030918e-10
1.582367447e-10
1.612245138e-10
1.642675438e-10
1.673670303e-10
1.705242226e-10
1.737404264e-10
1.770170062e-10
1.803553884e-10
1.83757064e-10
1.872235916e-10
1.907566005e-10
1.943577937e-10
1.980289516e-10
2.017719347e-10
2.055886876e-10
2.094812426e-10
2.13451723e-10
2.17502347e-10
2.21635432e-10
2.258533981e-10
2.301587727e-10
2.345541947e-10
2.390424188e-10
2.436263201e-10
2.48308899e-10
2.530932861e-10
2.579827468e-10
2.629806873e-10
2.680906594e-10
2.73316366e-10
2.786616676e-10
2.841305877e-10
2.89727319e-10
2.954562307e-10
3.013218745e-10
3.073289922e-10
3.13482522e-10
3.197876079e-10
3.262496072e-10
3.328740966e-10
3.396668831e-10
3.466340122e-10
3.537817782e-10
3.611167339e-10
3.686457019e-10
3.763757852e-10
3.84314379e-10
3.924691832e-10
4.008482154e-10
4.09459825e-10
4.183127082e-10
4.27415923e-10
4.367789084e-10
4.464115032e-10
4.56323966e-10
4.665269967e-10
4.770317621e-10
4.87849922e-10
4.989936564e-10
5.104756959e-10
5.223093559e-10
5.345085749e-10
5.470879558e-10
5.600628122e-10
5.734492185e-10
5.872640668e-10
6.015251298e-10
6.162511301e-10
6.314618191e-10
6.471780642e-10
6.634219473e-10
6.802168747e-10
6.975877013e-10
7.155608704e-10
7.34164571e-10
7.534289158e-10
7.73386142e-10
7.940708391e-10
8.155202064e-10
8.377743446e-10
8.608765878e-10
8.84873879e-10
9.098171976e-10
9.357620448e-10
9.627689965e-10
9.909043316e-10
1.020240748e-09
1.050858176e-09
1.082844711e-09
1.116297669e-09
1.151324794e-09
1.188045636e-09
1.226593123e-09
1.26711535e-09
1.309777627e-09
1.354764817e-09
1.402283998e-09
1.452567513e-09
1.505876444e-09
1.562504591e-09
1.622783007e-09
1.687085186e-09
1.755832987e-09
1.829503414e-09
1.908636344e-09
1.993843385e-09
2.085817978e-09
2.185346955e-09
2.293323756e-09
2.41076352e-09
2.538820358e-09
2.678807082e-09
2.83221777e-09
3.000753559e-09
3.186352137e-09
3.391221455e-09
3.617878278e-09
3.869192251e-09
4.148436288e-09
4.459344176e-09
4.806176444e-09
5.193795653e-09
5.627752495e-09
6.114384216e-09
6.660927143e-09
7.275645331e-09
7.967977641e-09
8.748705873e-09
9.630146988e-09
1.062637284e-08
1.175346135e-08
1.302978367e-08
1.447633238e-08
1.611709664e-08
1.797949103e-08
2.009484562e-08
2.249896613e-08
2.523277409e-08
2.834303835e-08
3.188321107e-08
3.591438287e-08
4.050637421e-08
4.573898215e-08
5.170340472e-08
5.850386783e-08
6.625948338e-08
7.510637123e-08
8.520008218e-08
9.671836406e-08
1.098643193e-07
1.248700083e-07
1.420005614e-07
1.615588691e-07
1.838909313e-07
2.093919566e-07
2.385133132e-07
2.717704493e-07
3.097519131e-07
3.531296208e-07
4.026705401e-07
4.592499755e-07
5.238666661e-07
5.976599301e-07
6.819291193e-07
7.781556722e-07
8.880280898e-07
1.013470186e-06
1.156673006e-06
1.320130825e-06
1.506681698e-06
1.719553035e-06
1.962412732e-06
2.239426381e-06
2.555321134e-06
2.915456749e-06
3.325904387e-06
3.793533627e-06
4.32610816e-06
4.932390465e-06
5.622255656e-06
6.406814464e-06
7.298545048e-06
8.311432994e-06
9.461118426e-06
1.076504863e-05
1.224263401e-05
1.39154045e-05
1.580716274e-05
1.794412971e-05
2.035507745e-05
2.307144292e-05
2.612741658e-05
2.955999839e-05
3.340901442e-05
3.771708714e-05
4.252955343e-05
4.789432574e-05
5.386169356e-05
6.048406505e-05
6.781565139e-05
7.591209952e-05
8.483008224e-05
9.462685737e-05
0.0001053598104
0.0001170859959
0.0001298616955
0.0001437420072
0.0001587804822
0.0001750288222
0.0001925366463
0.0002113513351
0.0002315179542
0.0002530792602
0.0002760757777
0.0003005459553
0.0003265263896
0.0003540521317
0.0003831571103
0.0004138747643
0.0004462390802
0.0004802791012
0.0005160545488
0.0005535672213
0.0005929877285
0.0006343560392
0.0006777520744
0.0007226485544
0.0007694702059
0.0008182779859
0.0008691373281
0.0009221135597
0.0009772557475
0.001034612947
0.001094240653
0.001156182224
0.001220471496
0.001287114989
0.001357055663
0.001428272091
0.001501526929
0.001576443754
0.001653185052
0.001729175558
0.001803673348
0.001874524255
0.001939338666
0.001993752049
0.002033964041
0.002055522628
0.002054263555
0.002026990495
0.00197209785
0.001889656747
0.001783137035
0.001656490509
0.001516371315
0.001368821773
0.001219993784
0.00107514997
0.0009383577357
0.0008112108258
0.0006956025874
0.0005928955146
0.0005029214341
0.0004249475473
0.0003579643778
0.0003008351393
0.0002523689062
0.0002114205105
0.000176966701
0.0001484799166
0.000124590712
0.0001043821911
8.750695542e-05
7.341607231e-05
6.164501162e-05
5.180540237e-05
4.357422277e-05
3.668940012e-05
3.091663194e-05
2.607675393e-05
2.201582028e-05
1.860569498e-05
1.573966661e-05
1.332882367e-05
1.129905103e-05
9.58853736e-06
8.145705154e-06
6.927491233e-06
5.897918441e-06
5.026909145e-06
4.289299638e-06
3.664021331e-06
3.133420414e-06
2.682692242e-06
2.299411182e-06
1.973139391e-06
1.695101168e-06
1.457911757e-06
1.255351312e-06
1.082176396e-06
9.33962647e-07
8.069733776e-07
6.98049742e-07
6.045188594e-07
5.241169e-07
4.549246444e-07
3.953134514e-07
3.438999142e-07
2.995077794e-07
2.611359372e-07
2.279314937e-07
1.991670984e-07
1.742218398e-07
1.525651323e-07
1.337431149e-07
1.173671607e-07
1.0310416e-07
9.066829694e-08
7.981408299e-08
7.033045052e-08
6.203574026e-08
5.477344338e-08
4.840858141e-08
4.28246254e-08
3.792087169e-08
3.361020431e-08
2.981718546e-08
2.647642419e-08
2.353118155e-08
2.09321768e-08
1.863656456e-08
1.660705786e-08
1.481117521e-08
1.322059386e-08
1.181059351e-08
1.055957747e-08
9.448660079e-09
8.461310844e-09
7.583047265e-09
6.801169377e-09
6.104530165e-09
5.483336811e-09
4.92897846e-09
4.433876843e-09
3.991356599e-09
3.595532591e-09
3.241211904e-09
2.923808537e-09
2.639269071e-09
2.384007849e-09
2.1548504e-09
1.94898401e-09
1.76391451e-09
1.597428449e-09
1.447559977e-09
1.312561799e-09
1.190879703e-09
1.081130186e-09
9.820807961e-10
8.926328378e-10
8.118061537e-10
7.387257134e-10
6.72609792e-10
6.127595386e-10
5.58549765e-10
5.094208052e-10
4.648713169e-10
4.244519098e-10
3.877595023e-10
3.544323197e-10
3.241454572e-10
2.966069423e-10
2.71554236e-10
2.48751124e-10
2.279849507e-10
2.090641571e-10
1.918160886e-10
1.760850403e-10
1.617305138e-10
1.486256621e-10
1.366558999e-10
1.257176627e-10
1.157172967e-10
1.065700655e-10
9.819926163e-11
9.053540959e-11
8.351555252e-11
7.708261185e-11
7.118481294e-11
6.577516928e-11
6.081101919e-11
5.62536093e-11
5.206772003e-11
4.822132848e-11
4.468530497e-11
4.143313971e-11
3.844069636e-11
3.568598991e-11
3.314898614e-11
3.081142076e-11
2.865663592e-11
2.666943257e-11
2.483593698e-11
2.314347998e-11
2.158048769e-11
2.013638263e-11
1.880149413e-11
1.756697712e-11
1.642473854e-11
1.536737057e-11
1.438809008e-11
1.348068362e-11
1.263945747e-11
1.185919227e-11
1.113510178e-11
1.046279536e-11
9.838243827e-12
9.257748433e-12
8.717912563e-12
8.215615983e-12
7.747991372e-12
7.312402922e-12
6.906426832e-12
6.527833502e-12
6.174571294e-12
5.844751701e-12
5.536635798e-12
5.248621872e-12
4.979234108e-12
4.727112251e-12
4.491002149e-12
4.269747095e-12
4.062279916e-12
3.867615713e-12
3.68484523e-12
3.513128765e-12
3.351690595e-12
3.199813872e-12
3.056835925e-12
2.922143974e-12
2.795171178e-12
2.675393015e-12
2.562323961e-12
2.455514435e-12
2.354547995e-12
2.259038763e-12
2.168629054e-12
2.082987201e-12
2.00180555e-12
1.924798616e-12
1.851701393e-12
1.782267787e-12
1.716269184e-12
1.653493126e-12
1.593742091e-12
1.536832371e-12
1.482593037e-12
1.430864982e-12
1.38150005e-12
1.334360213e-12
1.289316832e-12
1.246249962e-12
1.205047713e-12
1.165605667e-12
1.127826329e-12
1.091618627e-12
1.05689745e-12
1.023583216e-12
9.916014802e-13
9.608825637e-13
9.313612185e-13
9.02976313e-13
8.756705424e-13
8.4939016e-13
8.2408473e-13
7.99706896e-13
7.762121692e-13
7.535587308e-13
7.317072498e-13
7.106207127e-13
6.902642676e-13
6.706050775e-13
6.51612186e-13
6.332563921e-13
6.155101336e-13
5.983473795e-13
5.817435296e-13
5.656753213e-13
5.501207432e-13
5.350589555e-13
5.204702142e-13
5.063358028e-13
4.926379672e-13
4.793598556e-13
4.664854625e-13
4.539995766e-13
4.418877333e-13
4.301361684e-13
4.187317762e-13
4.076620711e-13
3.969151505e-13
3.864796606e-13
3.763447648e-13
3.665001138e-13
3.569358182e-13
3.476424225e-13
3.386108807e-13
3.298325337e-13
3.21299088e-13
3.130025965e-13
3.049354395e-13
2.970903072e-13
2.894601837e-13
2.820383319e-13
2.748182787e-13
2.677938023e-13
2.60958919e-13
2.543078716e-13
2.478351184e-13
2.415353228e-13
2.354033432e-13
2.294342241e-13
2.236231871e-13
2.179656228e-13
2.124570834e-13
2.070932749e-13
2.018700508e-13
1.967834052e-13
1.918294672e-13
1.870044942e-13
1.823048673e-13
1.77727086e-13
1.732677628e-13
1.689236191e-13
1.646914805e-13
1.605682727e-13
1.565510181e-13
1.526368311e-13
1.48822915e-13
1.451065587e-13
1.414851333e-13
1.379560894e-13
1.345169538e-13
1.311653267e-13
1.278988791e-13
1.247153506e-13
1.216125467e-13
1.185883365e-13
1.156406507e-13
1.127674789e-13
1.099668687e-13
1.072369225e-13
1.045757967e-13
1.019816992e-13
9.945288842e-14
9.698767082e-14
9.458440012e-14
9.224147554e-14
8.995734009e-14
8.77304796e-14
8.555942103e-14
8.344273158e-14
8.137901723e-14
7.936692164e-14
7.740512481e-14
7.549234238e-14
7.362732412e-14
7.180885325e-14
7.003574546e-14
6.830684775e-14
6.662103762e-14
6.497722223e-14
6.337433752e-14
6.181134736e-14
6.028724282e-14
5.880104131e-14
5.735178591e-14
5.593854469e-14
5.456040981e-14
5.321649712e-14
5.190594536e-14
5.06279154e-14
4.938159001e-14
4.816617287e-14
4.698088822e-14
4.582498021e-14
4.469771242e-14
4.359836725e-14
4.252624555e-14
4.148066598e-14
4.046096462e-14
3.946649454e-14
3.849662525e-14
3.755074236e-14
3.662824698e-14
3.572855551e-14
3.485109909e-14
3.399532345e-14
3.316068821e-14
3.234666672e-14
3.155274561e-14
3.077842451e-14
3.002321565e-14
2.928664362e-14
2.856824499e-14
2.786756798e-14
2.718417211e-14
2.65176281e-14
2.586751736e-14
2.523343192e-14
2.4614974e-14
2.401175583e-14
2.342339935e-14
2.284953596e-14
2.228980633e-14
2.174386006e-14
2.121135566e-14
2.069196e-14
2.018534841e-14
1.96912044e-14
1.920921919e-14
1.873909188e-14
1.828052897e-14
1.783324436e-14
1.739695901e-14
1.697140095e-14
1.655630494e-14
1.615141229e-14
1.575647078e-14
1.537123455e-14
1.499546374e-14
1.462892456e-14
1.4271389e-14
1.392263473e-14
1.358244489e-14
1.325060809e-14
1.292691814e-14
1.2611174e-14
1.230317964e-14
1.200274389e-14
1.170968027e-14
1.1423807e-14
1.114494676e-14
1.087292664e-14
1.060757801e-14
1.034873651e-14
1.009624177e-14
9.849937384e-15
9.609670831e-15
9.37529343e-15
9.146660107e-15
8.923629424e-15
8.706063381e-15
8.493827498e-15
8.286790592e-15
8.084824677e-15
7.887804944e-15
7.69560969e-15
7.508120238e-15
7.32522081e-15
7.146798543e-15
6.972743308e-15
6.802947711e-15
6.637307015e-15
6.475719096e-15
6.318084301e-15
6.164305457e-15
6.014287849e-15
5.867939062e-15
5.725168956e-15
5.585889564e-15
5.450015183e-15
5.317462172e-15
5.188148946e-15
5.061995931e-15
4.938925595e-15
4.818862213e-15
4.701731987e-15
4.587462924e-15
4.475984805e-15
4.367229138e-15
4.261129133e-15
4.157619634e-15
4.056637099e-15
3.958119536e-15
3.862006463e-15
3.768238947e-15
3.676759483e-15
3.58751197e-15
3.500441658e-15
3.415495201e-15
3.332620532e-15
3.25176687e-15
3.172884672e-15
3.095925643e-15
3.02084264e-15
2.947589686e-15
2.876121998e-15
2.806395802e-15
2.73836843e-15
2.671998267e-15
2.6072447e-15
2.544068134e-15
2.482429943e-15
2.422292448e-15
2.363618918e-15
2.306373498e-15
2.250521172e-15
2.196027808e-15
2.142860127e-15
2.090985644e-15
2.040372681e-15
1.990990323e-15
1.94280841e-15
1.895797532e-15
1.849928965e-15
1.805174698e-15
1.761507384e-15
1.718900375e-15
1.677327646e-15
1.636763822e-15
1.597184109e-15
1.558564327e-15
1.520880865e-15
1.484110697e-15
1.448231318e-15
1.413220812e-15
1.379057713e-15
1.345721131e-15
1.31319065e-15
1.281446321e-15
1.250468667e-15
1.220238698e-15
1.190737839e-15
1.161947967e-15
1.133851377e-15
1.106430747e-15
1.07966915e-15
1.053550085e-15
1.028057399e-15
1.003175285e-15
9.78888312e-16
9.551813919e-16
9.320397658e-16
9.094489932e-16
8.873949622e-16
8.658638429e-16
8.448421396e-16
8.243166319e-16
8.042743458e-16
7.847026267e-16
7.655890594e-16
7.469215015e-16
7.286880815e-16
7.108771408e-16
6.93477289e-16
6.764773873e-16
6.598664989e-16
6.436339425e-16
6.277692502e-16
6.122621812e-16
5.971027317e-16
5.822810602e-16
5.67787551e-16
5.5361274e-16
5.397473404e-16
5.261821992e-16
5.129082412e-16
4.999164597e-16
4.871978949e-16
4.747435587e-16
4.625444545e-16
3.65266738e-16
2.585349736e-16
1.833760788e-16
1.302344994e-16
9.251608502e-17
6.56934142e-17
4.660829875e-17
3.303274071e-17
2.33843552e-17
1.653508281e-17
1.167938899e-17
8.242161839e-18
5.812627887e-18
4.098071787e-18
2.890292477e-18
2.040842203e-18
1.444369103e-18
1.026495953e-18
7.343067847e-19
5.304751996e-19
3.887081363e-19
2.903026551e-19
2.22325879e-19
1.757087127e-19
1.43938035e-19
1.225792065e-19
1.084717819e-19
9.946133828e-20
9.40201353e-20
9.11062528e-20
8.99931203e-20
9.019687513e-20
9.135308333e-20
9.323889875e-20
9.570351965e-20
9.862424357e-20
1.019357673e-19
1.055967299e-19
1.095758051e-19
1.138518124e-19
1.184262622e-19
1.232800603e-19
1.284181961e-19
1.338345629e-19
1.395157604e-19
1.454554244e-19
1.516549765e-19
1.581273171e-19
1.648279515e-19
1.717794475e-19
1.789526147e-19
1.863250655e-19
1.938602457e-19
2.015734432e-19
2.094234479e-19
2.173757935e-19
2.253769463e-19
2.334122584e-19
2.414586191e-19
2.494636556e-19
2.574105533e-19
2.652365054e-19
2.729375888e-19
2.804591015e-19
2.87768925e-19
2.948417118e-19
3.016516696e-19
3.08172271e-19
3.143832643e-19
3.202702201e-19
3.258165724e-19
3.310231064e-19
3.358787364e-19
3.403827224e-19
3.445421454e-19
3.483502389e-19
3.518282473e-19
3.549882246e-19
3.578386526e-19
3.604003424e-19
3.62682108e-19
3.64710336e-19
3.665049374e-19
3.680840679e-19
3.694542806e-19
3.706448383e-19
3.716733888e-19
3.725563293e-19
3.733091727e-19
3.739465521e-19
3.744824665e-19
3.74929703e-19
3.753005946e-19
3.756058227e-19
3.758550824e-19
3.760560476e-19
3.76216569e-19
3.763432035e-19
3.764409358e-19
3.765151192e-19
3.765697063e-19
3.766083094e-19
3.766338745e-19
3.76648772e-19
3.76655221e-19
3.766550098e-19
3.76649707e-19
3.766403396e-19
3.766277719e-19
3.766131209e-19
3.765971388e-19
3.765802261e-19
3.765629868e-19
3.765458263e-19
3.765290108e-19
3.765127488e-19
3.764973167e-19
3.764826811e-19
3.764692022e-19
3.764568779e-19
3.764454535e-19
3.764353574e-19
3.764261007e-19
3.764177827e-19
3.764105056e-19
3.764038372e-19
3.763979321e-19
3.763924555e-19
3.763875289e-19
3.763826997e-19
3.76378106e-19
3.763736556e-19
3.763692238e-19
3.763647478e-19
3.763604626e-19
3.763556374e-19
3.763508194e-19
3.763458793e-19
3.763408936e-19
3.763354441e-19
3.76330128e-19
3.763247593e-19
3.763195199e-19
3.763139855e-19
3.763088678e-19
3.763039057e-19
3.762989188e-19
3.762942058e-19
3.762896344e-19
3.762852964e-19
3.762813541e-19
3.762775677e-19
3.762741052e-19
3.762706636e-19
3.762673697e-19
3.762646272e-19
3.762617484e-19
3.762593706e-19
3.76256809e-19
3.762545673e-19
3.762524411e-19
3.762502945e-19
3.76248235e-19
3.762465365e-19
3.762447945e-19
3.762430202e-19
3.762413673e-19
3.762397518e-19
3.762381779e-19
3.762366742e-19
3.762351709e-19
3.762338423e-19
3.762324229e-19
3.762313125e-19
3.762301522e-19
3.762290701e-19
3.762280986e-19
3.762271092e-19
3.762261476e-19
3.762253798e-19
3.762246756e-19
3.76224082e-19
3.762234913e-19
3.762230627e-19
3.762226721e-19
3.762224387e-19
3.762222977e-19
3.762224392e-19
3.762225441e-19
3.762226049e-19
3.762229153e-19
3.762233728e-19
3.762237942e-19
3.762244306e-19
3.762250466e-19
3.762257388e-19
3.762266953e-19
3.762273966e-19
3.762282591e-19
3.762289446e-19
3.762297115e-19
3.762306083e-19
3.762315283e-19
3.762322762e-19
3.762329732e-19
3.762338091e-19
3.762345044e-19
3.762349584e-19
3.762354279e-19
3.762360587e-19
3.762362499e-19
3.762364918e-19
3.762366039e-19
3.762367682e-19
3.762367072e-19
3.762365373e-19
3.762364399e-19
3.762362911e-19
3.762358068e-19
3.762352921e-19
3.762347749e-19
3.762343095e-19
3.762336127e-19
3.76232912e-19
3.762321832e-19
3.762312396e-19
3.762303451e-19
3.762296141e-19
3.762286181e-19
3.762276971e-19
3.76226779e-19
3.762258557e-19
3.762246528e-19
3.76223957e-19
3.762228921e-19
3.762220714e-19
3.762213411e-19
3.762203683e-19
3.762195064e-19
3.76218515e-19
3.762178417e-19
3.762170184e-19
3.762163092e-19
3.762158692e-19
3.762151124e-19
3.762144707e-19
3.762140407e-19
3.762137646e-19
3.762131973e-19
3.762127987e-19
)
;

boundaryField
{
    inlet
    {
        type            fixedValue;
        value           uniform 0;
    }
    outlet
    {
        type            zeroGradient;
    }
    wall
    {
        type            empty;
    }
}


// ************************************************************************* //
