/*--------------------------------*- C++ -*----------------------------------*\
  =========                 |
  \\      /  F ield         | OpenFOAM: The Open Source CFD Toolbox
   \\    /   O peration     | Website:  https://openfoam.org
    \\  /    A nd           | Version:  7
     \\/     M anipulation  |
\*---------------------------------------------------------------------------*/
FoamFile
{
    version     2.0;
    format      ascii;
    class       volScalarField;
    location    "0.000558243009";
    object      C2H2_0;
}
// * * * * * * * * * * * * * * * * * * * * * * * * * * * * * * * * * * * * * //

dimensions      [0 0 0 0 0 0 0];

internalField   nonuniform List<scalar> 
1500
(
1.42428386e-12
5.574341552e-12
1.151053214e-11
1.731745873e-11
2.168388344e-11
2.437657111e-11
2.57906544e-11
2.64380976e-11
2.670086969e-11
2.67966561e-11
2.682836159e-11
2.68379802e-11
2.684067595e-11
2.684137866e-11
2.684155003e-11
2.684158933e-11
2.684159783e-11
2.684159958e-11
2.684159992e-11
2.684159999e-11
2.68416e-11
2.68416e-11
2.68416e-11
2.68416e-11
2.68416e-11
2.68416e-11
2.68416e-11
2.68416e-11
2.68416e-11
2.68416e-11
2.68416e-11
2.68416e-11
2.68416e-11
2.68416e-11
2.68416e-11
2.68416e-11
2.68416e-11
2.68416e-11
2.68416e-11
2.68416e-11
2.68416e-11
2.68416e-11
2.68416e-11
2.68416e-11
2.68416e-11
2.68416e-11
2.68416e-11
2.68416e-11
2.68416e-11
2.68416e-11
2.68416e-11
2.68416e-11
2.68416e-11
2.68416e-11
2.68416e-11
2.68416e-11
2.68416e-11
2.68416e-11
2.68416e-11
2.68416e-11
2.68416e-11
2.68416e-11
2.68416e-11
2.68416e-11
2.68416e-11
2.68416e-11
2.68416e-11
2.68416e-11
2.68416e-11
2.68416e-11
2.68416e-11
2.68416e-11
2.68416e-11
2.68416e-11
2.68416e-11
2.68416e-11
2.68416e-11
2.68416e-11
2.68416e-11
2.68416e-11
2.68416e-11
2.68416e-11
2.68416e-11
2.68416e-11
2.68416e-11
2.68416e-11
2.68416e-11
2.68416e-11
2.68416e-11
2.68416e-11
2.68416e-11
2.68416e-11
2.68416e-11
2.68416e-11
2.68416e-11
2.68416e-11
2.68416e-11
2.68416e-11
2.68416e-11
2.68416e-11
2.68416e-11
2.68416e-11
2.68416e-11
2.68416e-11
2.68416e-11
2.68416e-11
2.68416e-11
2.68416e-11
2.68416e-11
2.68416e-11
2.68416e-11
2.68416e-11
2.68416e-11
2.68416e-11
2.68416e-11
2.68416e-11
2.68416e-11
2.68416e-11
2.68416e-11
2.68416e-11
2.68416e-11
2.68416e-11
2.68416e-11
2.68416e-11
2.68416e-11
2.68416e-11
2.68416e-11
2.68416e-11
2.68416e-11
2.68416e-11
2.68416e-11
2.68416e-11
2.68416e-11
2.68416e-11
2.68416e-11
2.68416e-11
2.68416e-11
2.68416e-11
2.68416e-11
2.68416e-11
2.68416e-11
2.68416e-11
2.68416e-11
2.68416e-11
2.68416e-11
2.68416e-11
2.68416e-11
2.68416e-11
2.68416e-11
2.68416e-11
2.68416e-11
2.68416e-11
2.68416e-11
2.68416e-11
2.68416e-11
2.68416e-11
2.68416e-11
2.68416e-11
2.68416e-11
2.68416e-11
2.68416e-11
2.68416e-11
2.68416e-11
2.68416e-11
2.68416e-11
2.68416e-11
2.68416e-11
2.68416e-11
2.68416e-11
2.68416e-11
2.68416e-11
2.68416e-11
2.68416e-11
2.68416e-11
2.68416e-11
2.68416e-11
2.68416e-11
2.68416e-11
2.68416e-11
2.68416e-11
2.68416e-11
2.68416e-11
2.68416e-11
2.68416e-11
2.68416e-11
2.68416e-11
2.68416e-11
2.68416e-11
2.68416e-11
2.68416e-11
2.68416e-11
2.68416e-11
2.68416e-11
2.68416e-11
2.68416e-11
2.68416e-11
2.68416e-11
2.68416e-11
2.68416e-11
2.68416e-11
2.68416e-11
2.68416e-11
2.68416e-11
2.68416e-11
2.68416e-11
2.68416e-11
2.68416e-11
2.68416e-11
2.68416e-11
2.68416e-11
2.68416e-11
2.68416e-11
2.68416e-11
2.68416e-11
2.68416e-11
2.68416e-11
2.68416e-11
2.68416e-11
2.68416e-11
2.68416e-11
2.68416e-11
2.68416e-11
2.68416e-11
2.68416e-11
2.68416e-11
2.68416e-11
2.68416e-11
2.68416e-11
2.68416e-11
2.68416e-11
2.68416e-11
2.68416e-11
2.68416e-11
2.68416e-11
2.684160001e-11
2.684160004e-11
2.684160015e-11
2.684160054e-11
2.684160183e-11
2.684160589e-11
2.684161803e-11
2.684165223e-11
2.684174304e-11
2.684196953e-11
2.684249821e-11
2.68436465e-11
2.684594663e-11
2.685013057e-11
2.685683391e-11
2.686560545e-11
2.686930226e-11
2.687026693e-11
2.687126956e-11
2.687231219e-11
2.687339642e-11
2.687452392e-11
2.687569648e-11
2.687691609e-11
2.687818487e-11
2.687950509e-11
2.688087916e-11
2.688230962e-11
2.688379912e-11
2.688535047e-11
2.68869666e-11
2.68886506e-11
2.689040573e-11
2.689223541e-11
2.689414324e-11
2.689613301e-11
2.68982087e-11
2.690037451e-11
2.690263487e-11
2.690499441e-11
2.690745804e-11
2.69100309e-11
2.691271842e-11
2.691552628e-11
2.69184605e-11
2.692152739e-11
2.692473358e-11
2.692808606e-11
2.693159219e-11
2.693525968e-11
2.693909667e-11
2.69431117e-11
2.694731375e-11
2.695171227e-11
2.695631718e-11
2.696113892e-11
2.696618845e-11
2.697147727e-11
2.697701748e-11
2.698282179e-11
2.698890352e-11
2.699527667e-11
2.700195593e-11
2.700895671e-11
2.70162952e-11
2.702398834e-11
2.703205392e-11
2.704051059e-11
2.704937788e-11
2.705867628e-11
2.706842723e-11
2.70786532e-11
2.708937771e-11
2.710062538e-11
2.711242198e-11
2.712479446e-11
2.7137771e-11
2.71513811e-11
2.716565556e-11
2.718062657e-11
2.719632778e-11
2.72127943e-11
2.72300628e-11
2.724817157e-11
2.726716054e-11
2.728707136e-11
2.730794745e-11
2.73298341e-11
2.735277847e-11
2.737682971e-11
2.740203898e-11
2.742845954e-11
2.745614684e-11
2.748515851e-11
2.751555454e-11
2.754739724e-11
2.758075139e-11
2.761568427e-11
2.765226575e-11
2.769056836e-11
2.773066734e-11
2.777264077e-11
2.781656959e-11
2.786253769e-11
2.791063201e-11
2.796094257e-11
2.801356261e-11
2.806858857e-11
2.812612029e-11
2.818626096e-11
2.824911728e-11
2.831479952e-11
2.838342154e-11
2.845510095e-11
2.85299591e-11
2.86081212e-11
2.868971639e-11
2.877487777e-11
2.886374252e-11
2.895645191e-11
2.905315143e-11
2.915399078e-11
2.925912399e-11
2.936870942e-11
2.94829099e-11
2.960189268e-11
2.972582957e-11
2.985489692e-11
2.998927572e-11
3.012915159e-11
3.027471487e-11
3.04261606e-11
3.058368861e-11
3.074750348e-11
3.091781463e-11
3.109483629e-11
3.127878754e-11
3.146989232e-11
3.166837942e-11
3.18744825e-11
3.208844007e-11
3.23104955e-11
3.254089699e-11
3.277989757e-11
3.302775507e-11
3.328473207e-11
3.355109591e-11
3.382711861e-11
3.411307687e-11
3.440925196e-11
3.471592974e-11
3.503340054e-11
3.536195911e-11
3.570190459e-11
3.605354038e-11
3.641717408e-11
3.679311742e-11
3.718168615e-11
3.758319996e-11
3.799798237e-11
3.842636062e-11
3.88686656e-11
3.932523167e-11
3.979639662e-11
4.02825015e-11
4.078389052e-11
4.13009109e-11
4.183391278e-11
4.238324905e-11
4.294927525e-11
4.353234941e-11
4.413283195e-11
4.47510855e-11
4.53874748e-11
4.604236655e-11
4.671612927e-11
4.740913318e-11
4.812175007e-11
4.885435317e-11
4.9607317e-11
5.03810173e-11
5.117583086e-11
5.199213545e-11
5.28303097e-11
5.369073298e-11
5.457378537e-11
5.54798475e-11
5.640930055e-11
5.736252613e-11
5.833990626e-11
5.934182333e-11
6.036866006e-11
6.14207995e-11
6.249862502e-11
6.360252033e-11
6.473286952e-11
6.589005711e-11
6.707446812e-11
6.828648815e-11
6.95265035e-11
7.079490131e-11
7.209206971e-11
7.3418398e-11
7.477427684e-11
7.616009851e-11
7.757625715e-11
7.902314906e-11
8.050117301e-11
8.201073059e-11
8.355222659e-11
8.512606942e-11
8.673267157e-11
8.837245005e-11
9.004582698e-11
9.175323011e-11
9.349509339e-11
9.52718577e-11
9.708397145e-11
9.893189133e-11
1.008160831e-10
1.027370224e-10
1.046951956e-10
1.066911006e-10
1.087252482e-10
1.107981626e-10
1.129103825e-10
1.150624629e-10
1.172549753e-10
1.194885096e-10
1.217636752e-10
1.240811022e-10
1.26441443e-10
1.288453736e-10
1.312935954e-10
1.337868362e-10
1.363258527e-10
1.389114313e-10
1.415443908e-10
1.442255834e-10
1.469558971e-10
1.497362578e-10
1.525676309e-10
1.554510239e-10
1.583874883e-10
1.613781221e-10
1.644240722e-10
1.675265364e-10
1.706867666e-10
1.739060711e-10
1.771858171e-10
1.805274338e-10
1.839324153e-10
1.874023233e-10
1.909387904e-10
1.945435232e-10
1.982183056e-10
2.019650022e-10
2.057855615e-10
2.096820199e-10
2.136565052e-10
2.177112403e-10
2.218485472e-10
2.260708512e-10
2.303806849e-10
2.347806927e-10
2.392736349e-10
2.438623927e-10
2.485499727e-10
2.533395118e-10
2.582342823e-10
2.632376973e-10
2.683533158e-10
2.735848485e-10
2.789361636e-10
2.844112927e-10
2.900144373e-10
2.95749975e-10
3.016224668e-10
3.076366645e-10
3.137975151e-10
3.201101737e-10
3.265800084e-10
3.332126066e-10
3.400137867e-10
3.46989606e-10
3.541463711e-10
3.614906475e-10
3.690292711e-10
3.767693586e-10
3.847183196e-10
3.928838689e-10
4.012740392e-10
4.098971959e-10
4.187620522e-10
4.27877682e-10
4.372535423e-10
4.468994902e-10
4.568258035e-10
4.670432013e-10
4.775628707e-10
4.883964939e-10
4.995562733e-10
5.110549622e-10
5.229059001e-10
5.351230506e-10
5.477210431e-10
5.607152183e-10
5.741216796e-10
5.879573491e-10
6.02240031e-10
6.16988481e-10
6.322224855e-10
6.479629486e-10
6.642319909e-10
6.810530598e-10
6.984510536e-10
7.164524617e-10
7.350855224e-10
7.543804006e-10
7.743693899e-10
7.950871396e-10
8.165709138e-10
8.388608828e-10
8.620004558e-10
8.860366574e-10
9.110205555e-10
9.370077478e-10
9.640589153e-10
9.922404523e-10
1.021625183e-09
1.052293177e-09
1.084332683e-09
1.117841187e-09
1.15292662e-09
1.189708742e-09
1.228320711e-09
1.268910882e-09
1.311644853e-09
1.35670781e-09
1.404307192e-09
1.454675746e-09
1.508075012e-09
1.564799298e-09
1.625180233e-09
1.68959196e-09
1.758457071e-09
1.832253391e-09
1.911521731e-09
1.996874751e-09
2.08900708e-09
2.188706899e-09
2.296869168e-09
2.414510753e-09
2.542787716e-09
2.68301508e-09
2.836689429e-09
3.00551474e-09
3.191431918e-09
3.396652559e-09
3.623697561e-09
3.875441251e-09
4.155161854e-09
4.466599171e-09
4.814020546e-09
5.202296266e-09
5.636985772e-09
6.124436221e-09
6.671895164e-09
7.287639366e-09
7.981122072e-09
8.763141367e-09
9.646032631e-09
1.064388855e-08
1.177281062e-08
1.30511966e-08
1.450006918e-08
1.614345151e-08
1.800879653e-08
2.012747763e-08
2.25353494e-08
2.527338846e-08
2.838842576e-08
3.193398342e-08
3.597123081e-08
4.057007699e-08
4.581041871e-08
5.178356599e-08
5.859387052e-08
6.636058537e-08
7.521998873e-08
8.532780876e-08
9.686199194e-08
1.100258628e-07
1.250517301e-07
1.422050013e-07
1.617888757e-07
1.841496975e-07
2.096830579e-07
2.388407502e-07
2.721386939e-07
3.101659585e-07
3.535950366e-07
4.031935311e-07
4.598374448e-07
5.245262828e-07
5.984002009e-07
6.827594635e-07
7.790864994e-07
8.890708796e-07
1.014637568e-06
1.157978837e-06
1.321590262e-06
1.508311265e-06
1.721370673e-06
1.964437832e-06
2.241679791e-06
2.557825125e-06
2.918234939e-06
3.328981589e-06
3.796935627e-06
4.329861373e-06
4.936521466e-06
5.626790532e-06
6.411777954e-06
7.30395942e-06
8.317316598e-06
9.467483848e-06
1.077190037e-05
1.224996562e-05
1.392319497e-05
1.58153722e-05
1.795269412e-05
2.036390227e-05
2.308039562e-05
2.613631775e-05
2.956861145e-05
3.341703375e-05
3.772412459e-05
4.253512319e-05
4.789782761e-05
5.386239484e-05
6.048108121e-05
6.780792589e-05
7.589838339e-05
8.48089139e-05
9.459654346e-05
0.0001053184083
0.0001170312989
0.0001297912211
0.0001436529891
0.0001586698669
0.0001748932699
0.0001923725363
0.0002111547762
0.0002312847988
0.0002528051239
0.0002757560614
0.0003001758704
0.0003261009806
0.0003535662819
0.0003826055055
0.0004132517757
0.0004455385738
0.0004794894183
0.0005151720975
0.0005525627682
0.0005918885818
0.0006331912681
0.0006765759957
0.0007213372368
0.00076802449
0.0008166997488
0.0008674261369
0.0009202662326
0.0009752672551
0.001032477611
0.001091955101
0.001153751835
0.00121792547
0.001284472776
0.001354313455
0.001425480565
0.001498695135
0.001573621107
0.00165037179
0.00172648557
0.00180116088
0.001872275335
0.001937109688
0.001991873222
0.002032443653
0.002054399599
0.00205360565
0.002026869751
0.001972579373
0.001891005966
0.001785216873
0.001659197921
0.001519615096
0.00137246887
0.001223861988
0.001079022885
0.0009419671148
0.0008148574387
0.0006990639652
0.0005960512332
0.0005057124714
0.0004273879582
0.0003600922091
0.0003027128116
0.0002540623484
0.000212991427
0.0001784502822
0.0001497269729
0.0001256315192
0.0001053336176
8.836729358e-05
7.41831332e-05
6.232017653e-05
5.239369305e-05
4.408314951e-05
3.712359906e-05
3.128860581e-05
2.639469721e-05
2.228718002e-05
1.883707831e-05
1.59368483e-05
1.349680373e-05
1.144213274e-05
9.710409797e-06
8.249522455e-06
7.015945131e-06
5.973302813e-06
5.091176753e-06
4.34411151e-06
3.710789474e-06
3.173344564e-06
2.716791514e-06
2.3285511e-06
1.998055007e-06
1.716416807e-06
1.476157814e-06
1.270978547e-06
1.095568055e-06
9.454447441e-07
8.168234062e-07
7.065040428e-07
6.117788562e-07
5.303543734e-07
4.602861923e-07
3.999242625e-07
3.478669628e-07
3.029225308e-07
2.640766412e-07
2.304651301e-07
2.013510296e-07
1.76105215e-07
1.541900823e-07
1.351457697e-07
1.185785169e-07
1.041508204e-07
9.157310233e-08
8.05966515e-08
7.100763885e-08
6.262203795e-08
5.52813102e-08
4.884873607e-08
4.320629276e-08
3.825199442e-08
3.389762422e-08
3.006679885e-08
2.669331496e-08
2.371973535e-08
2.10961788e-08
1.877928344e-08
1.67313177e-08
1.491941731e-08
1.331492973e-08
1.189285038e-08
1.063133743e-08
9.511293662e-09
8.516005954e-09
7.630834024e-09
6.842941529e-09
6.141063513e-09
5.515305097e-09
4.956967064e-09
4.458394598e-09
4.012845994e-09
3.614378583e-09
3.257749533e-09
2.938329517e-09
2.652027487e-09
2.395225097e-09
2.164719461e-09
1.957673159e-09
1.771570527e-09
1.604179416e-09
1.453517692e-09
1.317823885e-09
1.195531433e-09
1.085246074e-09
9.85725975e-10
8.958642655e-10
8.14673656e-10
7.412728952e-10
6.7487483e-10
6.147758713e-10
5.603466943e-10
5.110240208e-10
4.663033527e-10
4.257325424e-10
3.88906098e-10
3.554601377e-10
3.250679136e-10
2.974358406e-10
2.722999684e-10
2.49422847e-10
2.285907381e-10
2.096111343e-10
1.923105493e-10
1.765325485e-10
1.621359932e-10
1.489934741e-10
1.369899117e-10
1.260213071e-10
1.159936241e-10
1.068217896e-10
9.842879941e-11
9.074491634e-11
8.370695247e-11
7.725762509e-11
7.134497895e-11
6.592186769e-11
6.094548789e-11
5.637696048e-11
5.218095415e-11
4.832534667e-11
4.478091992e-11
4.152108523e-11
3.852163587e-11
3.576052391e-11
3.321765882e-11
3.087472584e-11
2.871502183e-11
2.672330708e-11
2.488567123e-11
2.318941212e-11
2.162292616e-11
2.017560898e-11
1.88377656e-11
1.760052897e-11
1.645578608e-11
1.539611101e-11
1.441470417e-11
1.350533715e-11
1.266230262e-11
1.188036878e-11
1.115473807e-11
1.048100949e-11
9.855144409e-12
9.273435413e-12
8.732477965e-12
8.229144569e-12
7.760561245e-12
7.324086076e-12
6.917289649e-12
6.537937212e-12
6.183972391e-12
5.853502319e-12
5.544784065e-12
5.256212225e-12
4.986307586e-12
4.733706765e-12
4.497152724e-12
4.275486097e-12
4.067637257e-12
3.872619047e-12
3.689520122e-12
3.517498855e-12
3.355777748e-12
3.203638308e-12
3.060416353e-12
2.925497703e-12
2.798314225e-12
2.678340204e-12
2.565089011e-12
2.458110048e-12
2.356985933e-12
2.261329915e-12
2.170783508e-12
2.085014299e-12
2.003713949e-12
1.926596337e-12
1.853395869e-12
1.78386591e-12
1.717777343e-12
1.654917246e-12
1.595087668e-12
1.538104504e-12
1.483796457e-12
1.432004083e-12
1.382578908e-12
1.335382616e-12
1.290286298e-12
1.24716976e-12
1.205920884e-12
1.166435036e-12
1.128614525e-12
1.092368097e-12
1.057610472e-12
1.024261912e-12
9.922478246e-13
9.614983991e-13
9.319482626e-13
9.035361685e-13
8.762047054e-13
8.499000277e-13
8.245716075e-13
8.001720037e-13
7.766566486e-13
7.539836506e-13
7.321136105e-13
7.110094519e-13
6.906362645e-13
6.709611569e-13
6.519531227e-13
6.335829136e-13
6.158229243e-13
5.986470828e-13
5.820307513e-13
5.659506322e-13
5.503846816e-13
5.35312029e-13
5.207129025e-13
5.065685587e-13
4.928612191e-13
4.795740083e-13
4.666908996e-13
4.541966619e-13
4.420768115e-13
4.303175667e-13
4.189058054e-13
4.078290267e-13
3.970753132e-13
3.866332978e-13
3.76492131e-13
3.666414518e-13
3.570713595e-13
3.477723881e-13
3.387354816e-13
3.299519713e-13
3.21413555e-13
3.131122772e-13
3.050405105e-13
2.971909378e-13
2.895565359e-13
2.821305612e-13
2.749065344e-13
2.678782277e-13
2.610396515e-13
2.543850432e-13
2.479088563e-13
2.41605749e-13
2.354705754e-13
2.294983754e-13
2.236843665e-13
2.180239354e-13
2.125126303e-13
2.071461538e-13
2.01920356e-13
1.968312275e-13
1.91874894e-13
1.870476102e-13
1.823457542e-13
1.777658227e-13
1.733044254e-13
1.689582812e-13
1.647242133e-13
1.605991453e-13
1.565800968e-13
1.526641802e-13
1.488485966e-13
1.451306331e-13
1.415076589e-13
1.379771224e-13
1.345365487e-13
1.311835361e-13
1.279157541e-13
1.247309408e-13
1.216268998e-13
1.186014989e-13
1.156526671e-13
1.127783929e-13
1.099767221e-13
1.072457561e-13
1.0458365e-13
1.019886105e-13
9.945889444e-14
9.699280758e-14
9.458870235e-14
9.224497673e-14
8.996007276e-14
8.77324752e-14
8.556071007e-14
8.344334364e-14
8.137898088e-14
7.936626455e-14
7.740387379e-14
7.54905233e-14
7.362496203e-14
7.180597248e-14
7.003236943e-14
6.83029992e-14
6.661673863e-14
6.497249407e-14
6.336920081e-14
6.180582195e-14
6.028134794e-14
5.879479566e-14
5.734520752e-14
5.593165092e-14
5.455321754e-14
5.320902255e-14
5.18982042e-14
5.06199229e-14
4.937336078e-14
4.815772107e-14
4.697222754e-14
4.581612381e-14
4.468867307e-14
4.358915725e-14
4.25168767e-14
4.147114975e-14
4.045131207e-14
3.945671637e-14
3.848673169e-14
3.754074324e-14
3.66181518e-14
3.571837341e-14
3.484083891e-14
3.398499364e-14
3.315029696e-14
3.233622189e-14
3.154225474e-14
3.076789486e-14
3.001265422e-14
2.927605714e-14
2.855763984e-14
2.785695024e-14
2.717354773e-14
2.650700271e-14
2.585689649e-14
2.52228208e-14
2.46043776e-14
2.400117887e-14
2.341284636e-14
2.283901125e-14
2.2279314e-14
2.173340409e-14
2.120093979e-14
2.06815879e-14
2.017502355e-14
1.968092997e-14
1.919899838e-14
1.872892761e-14
1.827042401e-14
1.782320132e-14
1.738698043e-14
1.696148913e-14
1.654646208e-14
1.61416405e-14
1.574677204e-14
1.536161065e-14
1.49859165e-14
1.461945558e-14
1.42619998e-14
1.391332673e-14
1.357321938e-14
1.32414663e-14
1.29178612e-14
1.260220298e-14
1.229429546e-14
1.19939474e-14
1.170097227e-14
1.141518816e-14
1.113641772e-14
1.086448797e-14
1.059923023e-14
1.034048002e-14
1.008807691e-14
9.841864456e-15
9.601690096e-15
9.367405029e-15
9.138864185e-15
8.915926025e-15
8.698452549e-15
8.486309219e-15
8.279364774e-15
8.077491174e-15
7.880563624e-15
7.688460357e-15
7.501062677e-15
7.318254748e-15
7.139923671e-15
6.965959254e-15
6.796254119e-15
6.630703499e-15
6.46920519e-15
6.311659558e-15
6.157969391e-15
6.008039918e-15
5.861778713e-15
5.71909564e-15
5.579902698e-15
5.444114147e-15
5.311646376e-15
5.182417756e-15
5.056348732e-15
4.933361675e-15
4.81338091e-15
4.696332581e-15
4.582144704e-15
4.470747056e-15
4.362071161e-15
4.256050178e-15
4.152618943e-15
4.0517139e-15
3.953273074e-15
3.857236013e-15
3.763543726e-15
3.672138685e-15
3.582964781e-15
3.495967263e-15
3.411092786e-15
3.328289288e-15
3.247506002e-15
3.168693387e-15
3.091803122e-15
3.016788061e-15
2.943602257e-15
2.872200894e-15
2.802540209e-15
2.734577558e-15
2.668271277e-15
2.603580794e-15
2.540466524e-15
2.47888982e-15
2.418813017e-15
2.360199358e-15
2.303012973e-15
2.247218894e-15
2.192783005e-15
2.139672003e-15
2.087853413e-15
2.037295575e-15
1.987967557e-15
1.93983921e-15
1.89288112e-15
1.847064582e-15
1.802361589e-15
1.758744803e-15
1.716187567e-15
1.674663878e-15
1.634148323e-15
1.594616153e-15
1.55604318e-15
1.518405809e-15
1.481681002e-15
1.445846281e-15
1.410879737e-15
1.376759919e-15
1.343465904e-15
1.310977303e-15
1.279274178e-15
1.248337053e-15
1.21814694e-15
1.18868529e-15
1.159933972e-15
1.131875259e-15
1.104491862e-15
1.077766877e-15
1.051683805e-15
1.026226457e-15
1.001379072e-15
9.771262064e-16
9.534527794e-16
9.303440336e-16
9.077855316e-16
8.857631771e-16
8.642631459e-16
8.432719426e-16
8.227763261e-16
8.027633576e-16
7.832203793e-16
7.641349866e-16
7.454950285e-16
7.272886393e-16
7.09504189e-16
6.921302884e-16
6.751557879e-16
6.585697817e-16
6.423616322e-16
6.265209167e-16
6.110374683e-16
5.959013715e-16
5.811029446e-16
5.666327788e-16
5.524816704e-16
5.386406708e-16
5.251010395e-16
5.118542094e-16
4.988917186e-16
4.862051755e-16
4.737860332e-16
4.616254377e-16
3.64683371e-16
2.579541004e-16
1.829438562e-16
1.299248828e-16
9.229643672e-17
6.553917489e-17
4.650098085e-17
3.295880813e-17
2.333403372e-17
1.650122476e-17
1.165674406e-17
8.227283363e-18
5.802960603e-18
4.091904527e-18
2.886334776e-18
2.03839011e-18
1.44287629e-18
1.025600662e-18
7.338110538e-19
5.30193214e-19
3.885748499e-19
2.902582993e-19
2.223298213e-19
1.75721872e-19
1.439663318e-19
1.22620085e-19
1.085153826e-19
9.950952155e-20
9.406938941e-20
9.115808552e-20
9.004595331e-20
9.025248477e-20
9.141064688e-20
9.33001829e-20
9.576796234e-20
9.869266726e-20
1.020089359e-19
1.056737031e-19
1.096573394e-19
1.139395071e-19
1.185175139e-19
1.233783183e-19
1.285227046e-19
1.339446839e-19
1.396304086e-19
1.455759484e-19
1.517835125e-19
1.582559519e-19
1.649689147e-19
1.719250696e-19
1.790983741e-19
1.864752663e-19
1.940164479e-19
2.017318008e-19
2.095881323e-19
2.175409268e-19
2.255413403e-19
2.33575559e-19
2.41622428e-19
2.496286255e-19
2.575728281e-19
2.653951371e-19
2.730939835e-19
2.806129403e-19
2.879171064e-19
2.94984837e-19
3.017886357e-19
3.083028913e-19
3.145073434e-19
3.203872781e-19
3.259266169e-19
3.311262062e-19
3.359744093e-19
3.40471701e-19
3.446241693e-19
3.484246439e-19
3.518949979e-19
3.550490211e-19
3.578938521e-19
3.604506284e-19
3.627263483e-19
3.647493954e-19
3.665389943e-19
3.68113973e-19
3.694801742e-19
3.706676702e-19
3.716929132e-19
3.72573086e-19
3.733233188e-19
3.739584176e-19
3.744924235e-19
3.749381178e-19
3.753075884e-19
3.756117586e-19
3.75859673e-19
3.760597789e-19
3.762195844e-19
3.76345562e-19
3.764426901e-19
3.765164284e-19
3.765706666e-19
3.766089202e-19
3.76634287e-19
3.766489731e-19
3.766552704e-19
3.76654969e-19
3.766495923e-19
3.766401648e-19
3.766275138e-19
3.766128301e-19
3.76596791e-19
3.765798851e-19
3.76562649e-19
3.765454843e-19
3.76528685e-19
3.765124327e-19
3.764970085e-19
3.764823975e-19
3.764689354e-19
3.764566386e-19
3.764452291e-19
3.764351837e-19
3.764259184e-19
3.76417635e-19
3.764103904e-19
3.764037378e-19
3.763978602e-19
3.763924032e-19
3.763874991e-19
3.763826692e-19
3.763780923e-19
3.763736506e-19
3.763692387e-19
3.763647637e-19
3.763604965e-19
3.763556649e-19
3.763508777e-19
3.763459291e-19
3.763409463e-19
3.763355101e-19
3.763302108e-19
3.763248477e-19
3.763195859e-19
3.763140702e-19
3.763089535e-19
3.763040137e-19
3.762990556e-19
3.76294324e-19
3.762897414e-19
3.762854242e-19
3.76281476e-19
3.762777301e-19
3.762742704e-19
3.762708751e-19
3.762675411e-19
3.762648261e-19
3.762619744e-19
3.762595661e-19
3.762570057e-19
3.76254741e-19
3.762525992e-19
3.762504706e-19
3.762484361e-19
3.762467252e-19
3.762449454e-19
3.762432423e-19
3.762415775e-19
3.762399958e-19
3.762384072e-19
3.762369495e-19
3.762353917e-19
3.762340998e-19
3.762326739e-19
3.762315494e-19
3.76230352e-19
3.762292957e-19
3.762282835e-19
3.762273256e-19
3.762263508e-19
3.762255617e-19
3.762248283e-19
3.762242467e-19
3.762236896e-19
3.762232355e-19
3.76222837e-19
3.762226352e-19
3.762225079e-19
3.762226558e-19
3.762227372e-19
3.762228107e-19
3.762231015e-19
3.762235651e-19
3.762239967e-19
3.762245846e-19
3.762251915e-19
3.762259511e-19
3.762268473e-19
3.762275872e-19
3.762284402e-19
3.762291655e-19
3.762299179e-19
3.762308238e-19
3.76231706e-19
3.762324691e-19
3.762331551e-19
3.762339851e-19
3.762346495e-19
3.762351063e-19
3.762356141e-19
3.762361825e-19
3.762363758e-19
3.762366011e-19
3.762366977e-19
3.762368668e-19
3.76236786e-19
3.762365944e-19
3.762364966e-19
3.762363295e-19
3.762358509e-19
3.762353055e-19
3.762347884e-19
3.762343023e-19
3.762336013e-19
3.762328863e-19
3.762321459e-19
3.762311769e-19
3.762302717e-19
3.762295324e-19
3.7622852e-19
3.762275913e-19
3.762266598e-19
3.762257248e-19
3.762245054e-19
3.762238097e-19
3.762227389e-19
3.762218914e-19
3.762211798e-19
3.76220187e-19
3.762193263e-19
3.762183435e-19
3.762176569e-19
3.762168325e-19
3.7621614e-19
3.76215692e-19
3.762149356e-19
3.762142883e-19
3.762138792e-19
3.76213584e-19
3.762129854e-19
3.762126437e-19
)
;

boundaryField
{
    inlet
    {
        type            fixedValue;
        value           uniform 0;
    }
    outlet
    {
        type            zeroGradient;
    }
    wall
    {
        type            empty;
    }
}


// ************************************************************************* //
