/*--------------------------------*- C++ -*----------------------------------*\
  =========                 |
  \\      /  F ield         | OpenFOAM: The Open Source CFD Toolbox
   \\    /   O peration     | Website:  https://openfoam.org
    \\  /    A nd           | Version:  7
     \\/     M anipulation  |
\*---------------------------------------------------------------------------*/
FoamFile
{
    version     2.0;
    format      ascii;
    class       volScalarField;
    location    "0.000558243009";
    object      C2H3O1-2_0;
}
// * * * * * * * * * * * * * * * * * * * * * * * * * * * * * * * * * * * * * //

dimensions      [0 0 0 0 0 0 0];

internalField   nonuniform List<scalar> 
1500
(
2.251563883e-45
7.670082964e-45
1.302453538e-44
1.614917479e-44
1.743975975e-44
1.786095379e-44
1.797482384e-44
1.799920225e-44
1.800130373e-44
1.799850537e-44
1.799444405e-44
1.798968568e-44
1.798447888e-44
1.797919237e-44
1.797422584e-44
1.796986979e-44
1.796625256e-44
1.796336345e-44
1.796111028e-44
1.795937685e-44
1.795806151e-44
1.795709261e-44
1.795642593e-44
1.79560326e-44
1.795588564e-44
1.795595046e-44
1.795618159e-44
1.795652485e-44
1.79569229e-44
1.795732162e-44
1.795767547e-44
1.795795059e-44
1.795812554e-44
1.795819023e-44
1.795814372e-44
1.795799186e-44
1.795774507e-44
1.795741665e-44
1.79570216e-44
1.795657586e-44
1.795609576e-44
1.795559745e-44
1.795509628e-44
1.795460612e-44
1.795413867e-44
1.79537029e-44
1.795330477e-44
1.79529472e-44
1.795263037e-44
1.795235221e-44
1.795210907e-44
1.795189643e-44
1.795170954e-44
1.795154404e-44
1.795139633e-44
1.795126386e-44
1.795114525e-44
1.795104029e-44
1.795094984e-44
1.795087564e-44
1.795082015e-44
1.795078633e-44
1.795077738e-44
1.795079657e-44
1.795084701e-44
1.795093143e-44
1.795105199e-44
1.795121012e-44
1.795140631e-44
1.795164001e-44
1.795190958e-44
1.795221219e-44
1.795254385e-44
1.795289951e-44
1.795327314e-44
1.79536579e-44
1.795404635e-44
1.795443066e-44
1.795480283e-44
1.795515495e-44
1.795547942e-44
1.795576915e-44
1.795601777e-44
1.795621976e-44
1.795637062e-44
1.795646694e-44
1.795650648e-44
1.795648817e-44
1.795641213e-44
1.795627965e-44
1.795609314e-44
1.795585602e-44
1.795557272e-44
1.795524849e-44
1.79548893e-44
1.79545017e-44
1.795409266e-44
1.795366934e-44
1.7953239e-44
1.795280869e-44
1.795238517e-44
1.795197465e-44
1.795158267e-44
1.795121392e-44
1.795087214e-44
1.795056003e-44
1.795027921e-44
1.795003025e-44
1.79498127e-44
1.794962517e-44
1.794946553e-44
1.794933101e-44
1.794921842e-44
1.794912433e-44
1.794904531e-44
1.794897807e-44
1.794891961e-44
1.794886741e-44
1.794881946e-44
1.794877433e-44
1.794873118e-44
1.79486897e-44
1.794865011e-44
1.794861298e-44
1.794857921e-44
1.794854986e-44
1.794852606e-44
1.794850893e-44
1.79484995e-44
1.794849864e-44
1.794850704e-44
1.79485252e-44
1.79485535e-44
1.794859215e-44
1.794864133e-44
1.794870117e-44
1.794877185e-44
1.794885365e-44
1.794894694e-44
1.794905225e-44
1.794917021e-44
1.79493016e-44
1.794944724e-44
1.794960798e-44
1.794978459e-44
1.794997775e-44
1.795018792e-44
1.795041528e-44
1.79506597e-44
1.795092067e-44
1.795119727e-44
1.795148819e-44
1.795179168e-44
1.795210566e-44
1.795242771e-44
1.795275516e-44
1.795308512e-44
1.79534146e-44
1.795374056e-44
1.795405999e-44
1.795436994e-44
1.79546676e-44
1.795495033e-44
1.795521565e-44
1.795546127e-44
1.79556851e-44
1.795588518e-44
1.795605971e-44
1.795620702e-44
1.795632556e-44
1.795641386e-44
1.795647061e-44
1.795649459e-44
1.795648479e-44
1.795644038e-44
1.795636082e-44
1.795624592e-44
1.795609588e-44
1.795591139e-44
1.795569374e-44
1.795544482e-44
1.795516728e-44
1.795486453e-44
1.795454083e-44
1.795420128e-44
1.795385185e-44
1.795349929e-44
1.795315102e-44
1.795281497e-44
1.795249935e-44
1.795221232e-44
1.795196167e-44
1.795175444e-44
1.795159662e-44
1.795149281e-44
1.795144603e-44
1.795145764e-44
1.795152745e-44
1.795165388e-44
1.795183434e-44
1.795206566e-44
1.795234451e-44
1.795266777e-44
1.795303276e-44
1.795343721e-44
1.795387895e-44
1.795435531e-44
1.795486233e-44
1.795539376e-44
1.795594016e-44
1.79564882e-44
1.795702044e-44
1.795751578e-44
1.795795075e-44
1.795830172e-44
1.79585479e-44
1.795867505e-44
1.795867941e-44
1.795857151e-44
1.795837906e-44
1.795814852e-44
1.795794455e-44
1.795784708e-44
1.795794559e-44
1.795833078e-44
1.795908407e-44
1.796026566e-44
1.796190239e-44
1.79639769e-44
1.796641961e-44
1.796910526e-44
1.797185546e-44
1.797444819e-44
1.797663492e-44
1.79781647e-44
1.797881425e-44
1.797842168e-44
1.797692076e-44
1.797437213e-44
1.797098713e-44
1.79671405e-44
1.796336872e-44
1.79603525e-44
1.795888428e-44
1.795982523e-44
1.796405443e-44
1.797240194e-44
1.798549623e-44
1.800329251e-44
1.802349334e-44
1.803002839e-44
1.803190653e-44
1.80338149e-44
1.803575457e-44
1.803772564e-44
1.803972826e-44
1.804176274e-44
1.804382959e-44
1.804592942e-44
1.804806293e-44
1.805023083e-44
1.805243385e-44
1.805467273e-44
1.805694825e-44
1.80592612e-44
1.806161244e-44
1.806400283e-44
1.806643331e-44
1.806890485e-44
1.807141848e-44
1.80739753e-44
1.807657647e-44
1.807922321e-44
1.808191683e-44
1.808465872e-44
1.808745033e-44
1.809029323e-44
1.80931891e-44
1.809613968e-44
1.809914687e-44
1.810221267e-44
1.810533921e-44
1.810852877e-44
1.811178376e-44
1.811510675e-44
1.811850049e-44
1.812196791e-44
1.812551211e-44
1.81291364e-44
1.813284431e-44
1.81366396e-44
1.814052627e-44
1.814450856e-44
1.8148591e-44
1.815277841e-44
1.815707591e-44
1.816148894e-44
1.81660233e-44
1.817068514e-44
1.8175481e-44
1.818041783e-44
1.818550301e-44
1.819074437e-44
1.819615025e-44
1.820172946e-44
1.820749137e-44
1.821344593e-44
1.821960365e-44
1.822597571e-44
1.823257393e-44
1.823941086e-44
1.824649975e-44
1.825385467e-44
1.826149046e-44
1.826942286e-44
1.82776685e-44
1.828624495e-44
1.829517079e-44
1.830446564e-44
1.831415022e-44
1.832424639e-44
1.833477724e-44
1.83457671e-44
1.835724162e-44
1.836922786e-44
1.838175429e-44
1.839485092e-44
1.840854933e-44
1.842288274e-44
1.843788611e-44
1.845359616e-44
1.847005152e-44
1.848729273e-44
1.850536238e-44
1.852430517e-44
1.854416797e-44
1.856499995e-44
1.858685264e-44
1.860978003e-44
1.863383865e-44
1.865908767e-44
1.8685589e-44
1.871340738e-44
1.874261049e-44
1.877326902e-44
1.880545681e-44
1.883925091e-44
1.887473172e-44
1.891198309e-44
1.895109238e-44
1.899215063e-44
1.90352526e-44
1.908049694e-44
1.912798625e-44
1.91778272e-44
1.923013065e-44
1.92850117e-44
1.934258989e-44
1.94029892e-44
1.946633821e-44
1.953277021e-44
1.960242325e-44
1.967544026e-44
1.975196917e-44
1.983216295e-44
1.991617973e-44
2.00041829e-44
2.009634113e-44
2.019282852e-44
2.029382462e-44
2.039951453e-44
2.051008894e-44
2.06257442e-44
2.074668238e-44
2.08731113e-44
2.100524459e-44
2.114330169e-44
2.128750793e-44
2.14380945e-44
2.159529849e-44
2.175936289e-44
2.193053658e-44
2.210907434e-44
2.229523679e-44
2.24892904e-44
2.269150743e-44
2.29021659e-44
2.312154952e-44
2.334994762e-44
2.358765509e-44
2.383497228e-44
2.40922049e-44
2.435966394e-44
2.463766551e-44
2.492653076e-44
2.522658571e-44
2.553816109e-44
2.586159224e-44
2.619721887e-44
2.654538494e-44
2.690643842e-44
2.728073114e-44
2.766861853e-44
2.807045947e-44
2.8486616e-44
2.89174531e-44
2.936333848e-44
2.98246423e-44
3.030173689e-44
3.079499655e-44
3.130479722e-44
3.183151623e-44
3.237553199e-44
3.293722376e-44
3.351697129e-44
3.411515459e-44
3.47321536e-44
3.536834789e-44
3.60241164e-44
3.66998371e-44
3.739588674e-44
3.811264052e-44
3.885047186e-44
3.960975205e-44
4.039085003e-44
4.119413211e-44
4.20199617e-44
4.286869906e-44
4.374070111e-44
4.463632115e-44
4.555590868e-44
4.64998092e-44
4.746836406e-44
4.846191025e-44
4.948078032e-44
5.052530225e-44
5.159579931e-44
5.269259008e-44
5.381598834e-44
5.496630308e-44
5.614383855e-44
5.734889424e-44
5.858176503e-44
5.984274128e-44
6.113210897e-44
6.245014993e-44
6.379714202e-44
6.517335944e-44
6.657907304e-44
6.801455069e-44
6.948005765e-44
7.097585706e-44
7.250221045e-44
7.405937825e-44
7.564762047e-44
7.72671973e-44
7.891836987e-44
8.060140102e-44
8.231655612e-44
8.406410403e-44
8.584431798e-44
8.765747667e-44
8.950386531e-44
9.138377683e-44
9.329751309e-44
9.524538617e-44
9.722771977e-44
9.924485065e-44
1.012971302e-43
1.033849258e-43
1.05508623e-43
1.076686268e-43
1.098653637e-43
1.120992836e-43
1.143708618e-43
1.166806013e-43
1.190290345e-43
1.21416726e-43
1.238442748e-43
1.263123166e-43
1.288215266e-43
1.31372622e-43
1.339663649e-43
1.366035648e-43
1.392850824e-43
1.420118317e-43
1.447847838e-43
1.4760497e-43
1.504734854e-43
1.533914922e-43
1.563602236e-43
1.593809873e-43
1.624551698e-43
1.655842404e-43
1.687697552e-43
1.720133618e-43
1.753168035e-43
1.786819244e-43
1.82110674e-43
1.856051126e-43
1.891674164e-43
1.92799883e-43
1.965049376e-43
2.002851387e-43
2.041431847e-43
2.080819205e-43
2.121043448e-43
2.16213616e-43
2.204130591e-43
2.247061714e-43
2.290966272e-43
2.33588285e-43
2.381851979e-43
2.42891604e-43
2.477117883e-43
2.526502325e-43
2.577116249e-43
2.629007863e-43
2.682228071e-43
2.736830312e-43
2.792870548e-43
2.850407456e-43
2.909502668e-43
2.970221016e-43
3.032630738e-43
3.096803593e-43
3.162814962e-43
3.230744275e-43
3.300675563e-43
3.372695345e-43
3.446894905e-43
3.52337021e-43
3.602221686e-43
3.683552726e-43
3.76747004e-43
3.854084962e-43
3.943513797e-43
4.035878041e-43
4.131304667e-43
4.229926466e-43
4.331882446e-43
4.437318282e-43
4.546386826e-43
4.659248708e-43
4.776073043e-43
4.897038286e-43
5.022333261e-43
5.152158434e-43
5.286727483e-43
5.426269269e-43
5.571030304e-43
5.721277896e-43
5.877304142e-43
6.039431064e-43
6.208017203e-43
6.383466163e-43
6.566237683e-43
6.756862047e-43
6.955958881e-43
7.164261734e-43
7.382650275e-43
7.612192534e-43
7.854200423e-43
8.110302769e-43
8.382541515e-43
8.673498549e-43
8.986463038e-43
9.325652379e-43
9.696504125e-43
1.010606187e-42
1.056348565e-42
1.108072715e-42
1.167342353e-42
1.236208078e-42
1.317364084e-42
1.414355765e-42
1.531854773e-42
1.676023528e-42
1.854998334e-42
2.079529799e-42
2.363831863e-42
2.726707516e-42
3.193041522e-42
3.795779954e-42
4.578555534e-42
5.5991697e-42
6.934211302e-42
8.685183395e-42
1.098663107e-41
1.401692469e-41
1.801256697e-41
2.328717704e-41
3.025668229e-41
3.947275076e-41
5.166716357e-41
6.781071295e-41
8.919138851e-41
1.175181794e-40
1.550588998e-40
2.048232107e-40
2.708056872e-40
3.583086714e-40
4.743711516e-40
6.283385629e-40
8.326199071e-40
1.103693906e-39
1.463446275e-39
1.940947316e-39
2.574815129e-39
3.416357786e-39
4.53375176e-39
6.017599134e-39
7.988319508e-39
1.060598372e-38
1.408339782e-38
1.870351425e-38
2.484260481e-38
3.30011075e-38
4.384469582e-38
5.825896897e-38
7.742229636e-38
1.029028662e-37
1.367880154e-37
1.818566302e-37
2.418090405e-37
3.215736961e-37
4.277164456e-37
5.689870058e-37
7.570489969e-37
1.007455793e-36
1.340955823e-36
1.785239856e-36
2.377281866e-36
3.166478054e-36
4.218860586e-36
5.622760673e-36
7.49642977e-36
9.998311666e-36
1.334091187e-35
1.780956165e-35
2.378786196e-35
3.179227406e-35
4.251928023e-35
5.690988964e-35
7.623819095e-35
1.022334336e-34
1.372491977e-34
1.844993102e-34
2.483894263e-34
3.34987386e-34
4.526970402e-34
6.132322525e-34
8.330331741e-34
1.135327537e-33
1.553116505e-33
2.133463396e-33
2.943618128e-33
4.079842071e-33
5.680640931e-33
7.948222585e-33
1.118682754e-32
1.587653207e-32
2.281954992e-32
3.342683451e-32
5.025979529e-32
7.801085191e-32
1.252166718e-31
2.072240003e-31
3.515137729e-31
6.081091297e-31
1.072057162e-30
1.935116819e-30
3.605394886e-30
6.984247555e-30
1.420345237e-29
3.138866529e-29
8.153785718e-29
2.633354847e-28
9.999242537e-28
4.059044312e-27
1.674816537e-26
6.893659126e-26
2.785869208e-25
1.086174237e-24
4.085842563e-24
1.484361588e-23
5.213399436e-23
1.771994766e-22
5.834255986e-22
1.862418257e-21
5.768106626e-21
1.734716918e-20
5.069901126e-20
1.440942611e-19
3.985149516e-19
1.073122995e-18
2.815188587e-18
7.196933394e-18
1.795157231e-17
4.364318235e-17
1.038206083e-16
2.413616858e-16
5.486590805e-16
1.205899989e-15
2.589390765e-15
5.424099602e-15
1.107449312e-14
2.202044019e-14
4.260937305e-14
8.019997819e-14
1.469717502e-13
2.6256807e-13
4.579255279e-13
7.804952838e-13
1.307598634e-12
2.12332314e-12
3.361308364e-12
5.16773679e-12
7.706724011e-12
1.101085031e-11
1.507286243e-11
1.971753368e-11
2.468780075e-11
2.955487241e-11
3.389057568e-11
3.734159209e-11
3.967503627e-11
4.077994598e-11
4.06599496e-11
3.941683003e-11
3.724219859e-11
3.435203838e-11
3.10277507e-11
2.749225859e-11
2.394938079e-11
2.055569894e-11
1.741965507e-11
1.458781892e-11
1.208081013e-11
9.921350683e-12
8.089042595e-12
6.555692509e-12
5.289085004e-12
4.250625766e-12
3.407005631e-12
2.725670793e-12
2.17530458e-12
1.737523878e-12
1.38603206e-12
1.102800244e-12
8.770894182e-13
6.974137404e-13
5.544929212e-13
4.408743364e-13
3.505913411e-13
2.78901583e-13
2.219486527e-13
1.767231022e-13
1.40807403e-13
1.122789766e-13
8.961052781e-14
7.15898884e-14
5.725569169e-14
4.584588323e-14
3.675660646e-14
2.950944507e-14
2.372537235e-14
1.910406837e-14
1.540751854e-14
1.244702049e-14
1.007289884e-14
8.166367932e-15
6.633096263e-15
5.398117729e-15
4.401808095e-15
3.596703473e-15
2.944984148e-15
2.416484079e-15
1.987115662e-15
1.637622577e-15
1.35259186e-15
1.119670858e-15
9.289461656e-16
7.724506708e-16
6.437719793e-16
5.377410964e-16
4.501846933e-16
3.777277759e-16
3.176363393e-16
2.676917673e-16
2.26090457e-16
1.913635041e-16
1.623123588e-16
1.379572083e-16
1.174955108e-16
1.002686379e-16
8.573499912e-17
7.344835675e-17
6.304030031e-17
5.420606021e-17
4.669300515e-17
4.029129992e-17
3.482630445e-17
3.015237881e-17
2.614782514e-17
2.271075021e-17
1.975567486e-17
1.721075049e-17
1.501546945e-17
1.311877839e-17
1.147752049e-17
1.005514705e-17
8.820649647e-18
7.7476736e-18
6.813780503e-18
5.999833636e-18
5.289484813e-18
4.668745181e-18
4.125625557e-18
3.649834464e-18
3.232524216e-18
2.866077005e-18
2.543924372e-18
2.260394591e-18
2.010583441e-18
1.790244603e-18
1.595696539e-18
1.423743262e-18
1.271606811e-18
1.136869609e-18
1.0174252e-18
9.114360671e-19
8.172974766e-19
7.336064291e-19
6.591349573e-19
5.928071773e-19
5.336794727e-19
4.80923387e-19
4.338108489e-19
3.917014018e-19
3.540311219e-19
3.203030244e-19
2.900787062e-19
2.629711058e-19
2.386381933e-19
2.16777469e-19
1.971211735e-19
1.794320977e-19
1.634999348e-19
1.49138078e-19
1.36180819e-19
1.244808924e-19
1.139073262e-19
1.043435471e-19
9.568572692e-20
8.784132015e-20
8.07277763e-20
7.427140497e-20
6.840638449e-20
6.307387944e-20
5.822125477e-20
5.380140038e-20
4.977211583e-20
4.609557923e-20
4.273786197e-20
3.966851554e-20
3.686019015e-20
3.428830929e-20
3.193076729e-20
2.976766846e-20
2.77810998e-20
2.595492107e-20
2.427457575e-20
2.272693237e-20
2.130013546e-20
1.998346954e-20
1.876725228e-20
1.76427248e-20
1.66019547e-20
1.563775828e-20
1.47436243e-20
1.391364831e-20
1.314247037e-20
1.242522337e-20
1.175748177e-20
1.113522205e-20
1.055478255e-20
1.001283041e-20
9.506326116e-21
9.032500686e-21
8.588824981e-21
8.172990892e-21
7.782888644e-21
7.416588499e-21
7.072325998e-21
6.748484124e-21
6.443581124e-21
6.156258906e-21
5.885271891e-21
5.629473956e-21
5.387812629e-21
5.159321038e-21
4.943108218e-21
4.738353037e-21
4.54430002e-21
4.360251118e-21
4.185562181e-21
4.019637505e-21
3.8619268e-21
3.711921504e-21
3.569148825e-21
3.433172065e-21
3.303585672e-21
3.180013344e-21
3.062104998e-21
2.949535922e-21
2.842003789e-21
2.739226429e-21
2.640941614e-21
2.546903525e-21
2.4568843e-21
2.370670184e-21
2.288061469e-21
2.208871173e-21
2.132924492e-21
2.060057662e-21
1.990116645e-21
1.922957047e-21
1.85844336e-21
1.796448529e-21
1.73685254e-21
1.679542682e-21
1.624412317e-21
1.57136152e-21
1.520295661e-21
1.471124622e-21
1.423764553e-21
1.378136554e-21
1.334164957e-21
1.291777964e-21
1.250907802e-21
1.211490371e-21
1.173464937e-21
1.136773803e-21
1.101362421e-21
1.067178734e-21
1.03417303e-21
1.002298447e-21
9.715102073e-22
9.417651334e-22
9.130229123e-22
8.852445891e-22
8.583934076e-22
8.324337918e-22
8.073320168e-22
7.830560721e-22
7.595750334e-22
7.368596868e-22
7.148820282e-22
6.936148024e-22
6.730324721e-22
6.531102329e-22
6.338244158e-22
6.151523462e-22
5.970727243e-22
5.795643528e-22
5.62607162e-22
5.46182053e-22
5.302709e-22
5.148557195e-22
4.999196721e-22
4.85446122e-22
4.714192916e-22
4.578243672e-22
4.446467838e-22
4.318727028e-22
4.19488682e-22
4.074814681e-22
3.958389576e-22
3.84549083e-22
3.736000534e-22
3.629808557e-22
3.526808804e-22
3.426895709e-22
3.329971616e-22
3.235940289e-22
3.144708892e-22
3.056185865e-22
2.970286855e-22
2.886929395e-22
2.806032156e-22
2.727517295e-22
2.651309536e-22
2.577336566e-22
2.505528985e-22
2.435819006e-22
2.368139387e-22
2.302431485e-22
2.238634396e-22
2.176688425e-22
2.116534371e-22
2.058117385e-22
2.00138682e-22
1.946289608e-22
1.892776743e-22
1.840799061e-22
1.790311401e-22
1.741268043e-22
1.693623527e-22
1.647337445e-22
1.602368925e-22
1.558679887e-22
1.516230673e-22
1.474984501e-22
1.43490508e-22
1.395958601e-22
1.358110567e-22
1.321329567e-22
1.285581406e-22
1.250838551e-22
1.2170712e-22
1.184250082e-22
1.152349056e-22
1.121338551e-22
1.091193696e-22
1.061887867e-22
1.033398578e-22
1.005701525e-22
9.787731419e-23
9.525915342e-23
9.271355886e-23
9.023837071e-23
8.783171173e-23
8.549146266e-23
8.32158042e-23
8.100280676e-23
7.88505955e-23
7.675764764e-23
7.472202725e-23
7.274228022e-23
7.081671304e-23
6.894378052e-23
6.712218787e-23
6.535032887e-23
6.362666047e-23
6.19499842e-23
6.031901769e-23
5.873235742e-23
5.718881913e-23
5.568707807e-23
5.422603981e-23
5.280460783e-23
5.142161149e-23
5.00759402e-23
4.876650931e-23
4.749256284e-23
4.625299509e-23
4.504682214e-23
4.387297986e-23
4.273077735e-23
4.161919806e-23
4.053750429e-23
3.94847681e-23
3.846027798e-23
3.746317095e-23
3.64927729e-23
3.554827884e-23
3.462905859e-23
3.373431181e-23
3.286339563e-23
3.201572799e-23
3.119060545e-23
3.038735863e-23
2.960538332e-23
2.884422692e-23
2.810325666e-23
2.738200314e-23
2.667981199e-23
2.599625502e-23
2.53307292e-23
2.468279588e-23
2.405198459e-23
2.343784702e-23
2.283986605e-23
2.225762229e-23
2.169070244e-23
2.113868903e-23
2.060115456e-23
2.007771623e-23
1.956802427e-23
1.907172576e-23
1.858847685e-23
1.811789099e-23
1.765961806e-23
1.721337475e-23
1.677878326e-23
1.635555776e-23
1.594343768e-23
1.554202535e-23
1.515108308e-23
1.477026857e-23
1.439943926e-23
1.403828645e-23
1.368655829e-23
1.334398412e-23
1.301025706e-23
1.268517561e-23
1.236855452e-23
1.206015121e-23
1.175972292e-23
1.146704212e-23
1.118192126e-23
1.090423352e-23
1.063371615e-23
1.037018054e-23
1.011345487e-23
9.863330927e-24
9.619720233e-24
9.382438298e-24
9.151292076e-24
8.926109275e-24
8.706697703e-24
8.492946756e-24
8.284660977e-24
8.081725117e-24
7.883983901e-24
7.691314237e-24
7.503654064e-24
7.320781467e-24
7.142634686e-24
6.969009516e-24
6.799795756e-24
6.63489567e-24
6.474297227e-24
6.317837798e-24
6.165423553e-24
6.016817743e-24
5.872002916e-24
5.730907266e-24
5.593376334e-24
5.459349918e-24
5.328752897e-24
5.201490646e-24
5.077503294e-24
4.956666867e-24
4.838887783e-24
4.72412861e-24
4.612254557e-24
4.503177039e-24
4.396917782e-24
4.293381319e-24
4.192451878e-24
4.094081031e-24
3.998230206e-24
3.904821301e-24
3.813767595e-24
3.72499192e-24
3.638480819e-24
3.554174841e-24
3.471990094e-24
3.391901901e-24
3.31383054e-24
3.237724388e-24
3.163536636e-24
3.091240166e-24
3.020755703e-24
2.952079149e-24
2.885138372e-24
2.819866344e-24
2.756225569e-24
2.694183709e-24
2.633710773e-24
2.574770827e-24
2.517288148e-24
2.461264819e-24
2.406627158e-24
2.353369875e-24
2.301484177e-24
2.250895834e-24
2.201561713e-24
2.15345543e-24
2.10654354e-24
2.060831205e-24
2.016301788e-24
1.972881674e-24
1.930538564e-24
1.889234695e-24
1.848966657e-24
1.809704059e-24
1.77143079e-24
1.734151758e-24
1.697783183e-24
1.662335905e-24
1.627743711e-24
1.594011665e-24
1.561092851e-24
1.529032164e-24
1.497771412e-24
1.467303345e-24
1.437584777e-24
1.408608937e-24
1.38032271e-24
1.352761795e-24
1.32586782e-24
1.299661043e-24
1.274099594e-24
1.249186397e-24
1.224890715e-24
1.201195176e-24
1.178077631e-24
1.155515331e-24
1.133523217e-24
1.112059344e-24
1.091128808e-24
1.070735042e-24
1.050846705e-24
1.031434912e-24
1.012517242e-24
9.940612705e-25
9.760245512e-25
9.584548813e-25
9.413194245e-25
9.245896925e-25
9.082498862e-25
8.923174175e-25
8.767794539e-25
8.616131617e-25
8.46830021e-25
8.323964036e-25
8.182757691e-25
8.045027346e-25
7.910859466e-25
7.779667921e-25
7.651526338e-25
7.526495654e-25
7.40407613e-25
7.284604265e-25
7.167910147e-25
7.05377927e-25
6.942403976e-25
6.833311564e-25
6.726537745e-25
6.622074641e-25
6.519782957e-25
6.419385521e-25
6.321179048e-25
6.225015039e-25
6.130702611e-25
6.038246263e-25
5.947749993e-25
5.225751348e-25
4.466690232e-25
3.934455264e-25
3.55901261e-25
3.295900112e-25
3.110058918e-25
2.981914768e-25
2.894339212e-25
2.839021406e-25
2.806783333e-25
2.789125081e-25
2.785417621e-25
2.79124799e-25
2.805159512e-25
2.825657299e-25
2.851086193e-25
2.882067999e-25
2.917885004e-25
2.958069334e-25
3.003030354e-25
3.052183088e-25
3.105507697e-25
3.163757315e-25
3.226530944e-25
3.294152317e-25
3.366843171e-25
3.44475746e-25
3.528212892e-25
3.617392521e-25
3.712598867e-25
3.814016025e-25
3.921919235e-25
4.03665302e-25
4.158403864e-25
4.287431602e-25
4.423942502e-25
4.568268923e-25
4.72054903e-25
4.880993603e-25
5.049738343e-25
5.226905548e-25
5.412557736e-25
5.606715253e-25
5.80934595e-25
6.020321606e-25
6.239484576e-25
6.46658801e-25
6.701214945e-25
6.943047729e-25
7.191515686e-25
7.446000601e-25
7.705849e-25
7.970240485e-25
8.238305712e-25
8.509186455e-25
8.7817561e-25
9.055085614e-25
9.327945579e-25
9.599335547e-25
9.868003621e-25
1.013291891e-24
1.039287583e-24
1.064688638e-24
1.089390253e-24
1.113299201e-24
1.136332536e-24
1.158413648e-24
1.179479326e-24
1.199477717e-24
1.218368128e-24
1.236123575e-24
1.252727889e-24
1.268177437e-24
1.282480483e-24
1.295654896e-24
1.307727325e-24
1.318732612e-24
1.328717117e-24
1.337727311e-24
1.345818488e-24
1.35304525e-24
1.359469862e-24
1.36515031e-24
1.370149469e-24
1.374524761e-24
1.378335162e-24
1.381636727e-24
1.384481695e-24
1.386921091e-24
1.389000866e-24
1.390763572e-24
1.39224892e-24
1.393491979e-24
1.394524782e-24
1.395375602e-24
1.396070149e-24
1.396630233e-24
1.397075535e-24
1.397423074e-24
1.397687585e-24
1.397881922e-24
1.398017172e-24
1.398102988e-24
1.39814766e-24
1.398158459e-24
1.398141683e-24
1.398102796e-24
1.39804664e-24
1.397977514e-24
1.397898946e-24
1.397814253e-24
1.397726164e-24
1.397637141e-24
1.39754908e-24
1.397463742e-24
1.397382402e-24
1.397306033e-24
1.397235371e-24
1.39717084e-24
1.397112559e-24
1.397060509e-24
1.3970144e-24
1.396973789e-24
1.396938135e-24
1.396906767e-24
1.396878956e-24
1.39685398e-24
1.396831079e-24
1.396809559e-24
1.396788771e-24
1.396768143e-24
1.396747222e-24
1.396725603e-24
1.396703046e-24
1.396679357e-24
1.396654537e-24
1.396628531e-24
1.396601481e-24
1.396573591e-24
1.39654507e-24
1.396516113e-24
1.396487069e-24
1.396458165e-24
1.396429727e-24
1.39640189e-24
1.396374914e-24
1.396348982e-24
1.396324272e-24
1.396300879e-24
1.396278839e-24
1.396258141e-24
1.396238812e-24
1.396220816e-24
1.396204041e-24
1.39618843e-24
1.396173867e-24
1.396160288e-24
1.396147676e-24
1.396135717e-24
1.396124504e-24
1.396113808e-24
1.396103682e-24
1.396093957e-24
1.396084639e-24
1.396075772e-24
1.396067112e-24
1.396058827e-24
1.396050814e-24
1.396043031e-24
1.396035588e-24
1.396028465e-24
1.396021574e-24
1.396015027e-24
1.396008709e-24
1.396002886e-24
1.395997307e-24
1.395992068e-24
1.395987262e-24
1.395982869e-24
1.395978921e-24
1.395975523e-24
1.395972476e-24
1.395969981e-24
1.395967995e-24
1.395966555e-24
1.395965686e-24
1.395965282e-24
1.395965494e-24
1.395966225e-24
1.395967444e-24
1.395969263e-24
1.39597151e-24
1.395974223e-24
1.395977362e-24
1.395980874e-24
1.395984744e-24
1.395988864e-24
1.39599323e-24
1.395997779e-24
1.396002407e-24
1.396007124e-24
1.39601174e-24
1.396016407e-24
1.396020876e-24
1.396025216e-24
1.396029304e-24
1.396033139e-24
1.396036644e-24
1.396039809e-24
1.396042595e-24
1.396045001e-24
1.39604697e-24
1.396048517e-24
1.396049645e-24
1.396050296e-24
1.396050512e-24
1.396050295e-24
1.396049651e-24
1.396048625e-24
1.396047209e-24
1.396045432e-24
1.396043318e-24
1.396040896e-24
1.396038188e-24
1.396035235e-24
1.396032057e-24
1.396028691e-24
1.396025151e-24
1.396021478e-24
1.396017715e-24
1.396013865e-24
1.396009964e-24
1.396006018e-24
1.396002129e-24
1.395998212e-24
1.395994348e-24
1.395990534e-24
1.395986798e-24
1.395983153e-24
1.395979615e-24
1.395976175e-24
1.395972833e-24
1.39596969e-24
1.395966563e-24
1.395963621e-24
1.395960876e-24
1.395958302e-24
1.395955796e-24
1.395953586e-24
1.395951818e-24
)
;

boundaryField
{
    inlet
    {
        type            fixedValue;
        value           uniform 0;
    }
    outlet
    {
        type            zeroGradient;
    }
    wall
    {
        type            empty;
    }
}


// ************************************************************************* //
