/*--------------------------------*- C++ -*----------------------------------*\
  =========                 |
  \\      /  F ield         | OpenFOAM: The Open Source CFD Toolbox
   \\    /   O peration     | Website:  https://openfoam.org
    \\  /    A nd           | Version:  7
     \\/     M anipulation  |
\*---------------------------------------------------------------------------*/
FoamFile
{
    version     2.0;
    format      ascii;
    class       volScalarField;
    location    "0.000558243009";
    object      C2H3CHO;
}
// * * * * * * * * * * * * * * * * * * * * * * * * * * * * * * * * * * * * * //

dimensions      [0 0 0 0 0 0 0];

internalField   nonuniform List<scalar> 
1500
(
1.401603339e-15
5.463376801e-15
1.124678983e-14
1.68141496e-14
2.090997887e-14
2.337313614e-14
2.46320317e-14
2.519221396e-14
2.541295735e-14
2.549102365e-14
2.551607816e-14
2.552344439e-14
2.552544436e-14
2.552594924e-14
2.552606844e-14
2.552609489e-14
2.552610043e-14
2.552610154e-14
2.552610174e-14
2.552610178e-14
2.552610179e-14
2.552610179e-14
2.552610179e-14
2.552610179e-14
2.552610179e-14
2.552610179e-14
2.552610179e-14
2.552610179e-14
2.552610179e-14
2.552610179e-14
2.552610179e-14
2.552610179e-14
2.552610179e-14
2.552610179e-14
2.552610179e-14
2.552610179e-14
2.552610179e-14
2.552610179e-14
2.552610179e-14
2.552610179e-14
2.552610179e-14
2.552610179e-14
2.552610179e-14
2.552610179e-14
2.552610179e-14
2.552610179e-14
2.552610179e-14
2.552610179e-14
2.552610179e-14
2.552610179e-14
2.552610179e-14
2.552610179e-14
2.552610179e-14
2.552610179e-14
2.552610179e-14
2.552610179e-14
2.552610179e-14
2.552610179e-14
2.552610179e-14
2.552610179e-14
2.552610179e-14
2.552610179e-14
2.552610179e-14
2.552610179e-14
2.552610179e-14
2.552610179e-14
2.552610179e-14
2.552610179e-14
2.552610179e-14
2.552610179e-14
2.552610179e-14
2.552610179e-14
2.552610179e-14
2.552610179e-14
2.552610179e-14
2.552610179e-14
2.552610179e-14
2.552610179e-14
2.552610179e-14
2.552610179e-14
2.552610179e-14
2.552610179e-14
2.552610179e-14
2.552610179e-14
2.552610179e-14
2.552610179e-14
2.552610179e-14
2.552610179e-14
2.552610179e-14
2.552610179e-14
2.552610179e-14
2.552610179e-14
2.552610179e-14
2.552610179e-14
2.552610179e-14
2.552610179e-14
2.552610179e-14
2.552610179e-14
2.552610179e-14
2.552610179e-14
2.552610179e-14
2.552610179e-14
2.552610179e-14
2.552610179e-14
2.552610179e-14
2.552610179e-14
2.552610179e-14
2.552610179e-14
2.552610179e-14
2.552610179e-14
2.552610179e-14
2.552610179e-14
2.552610179e-14
2.552610179e-14
2.552610179e-14
2.552610179e-14
2.552610179e-14
2.552610179e-14
2.552610179e-14
2.552610179e-14
2.552610179e-14
2.552610179e-14
2.552610179e-14
2.552610179e-14
2.552610179e-14
2.552610179e-14
2.552610179e-14
2.552610179e-14
2.552610179e-14
2.552610179e-14
2.552610179e-14
2.552610179e-14
2.552610179e-14
2.552610179e-14
2.552610179e-14
2.552610179e-14
2.552610179e-14
2.552610179e-14
2.552610179e-14
2.552610179e-14
2.552610179e-14
2.552610179e-14
2.552610179e-14
2.552610179e-14
2.552610179e-14
2.552610179e-14
2.552610179e-14
2.552610179e-14
2.552610179e-14
2.552610179e-14
2.552610179e-14
2.552610179e-14
2.552610179e-14
2.552610179e-14
2.552610179e-14
2.552610179e-14
2.552610179e-14
2.552610179e-14
2.552610179e-14
2.552610179e-14
2.552610179e-14
2.552610179e-14
2.552610179e-14
2.552610179e-14
2.552610179e-14
2.552610179e-14
2.552610179e-14
2.552610179e-14
2.552610179e-14
2.552610179e-14
2.552610179e-14
2.552610179e-14
2.552610179e-14
2.552610179e-14
2.552610179e-14
2.552610179e-14
2.552610179e-14
2.552610179e-14
2.552610179e-14
2.552610179e-14
2.552610179e-14
2.552610179e-14
2.552610179e-14
2.552610179e-14
2.552610179e-14
2.552610179e-14
2.552610179e-14
2.552610179e-14
2.552610179e-14
2.552610179e-14
2.552610179e-14
2.552610179e-14
2.552610179e-14
2.552610179e-14
2.552610179e-14
2.552610179e-14
2.552610179e-14
2.552610179e-14
2.552610179e-14
2.552610179e-14
2.552610179e-14
2.552610179e-14
2.552610179e-14
2.552610179e-14
2.552610179e-14
2.552610179e-14
2.552610179e-14
2.552610179e-14
2.552610179e-14
2.552610179e-14
2.552610179e-14
2.552610179e-14
2.552610179e-14
2.552610179e-14
2.552610179e-14
2.552610179e-14
2.552610179e-14
2.552610179e-14
2.552610179e-14
2.552610179e-14
2.552610179e-14
2.552610179e-14
2.552610179e-14
2.552610179e-14
2.552610179e-14
2.552610179e-14
2.552610179e-14
2.552610179e-14
2.552610179e-14
2.552610179e-14
2.552610179e-14
2.552610179e-14
2.552610179e-14
2.552610179e-14
2.552610179e-14
2.552610179e-14
2.552610179e-14
2.55261018e-14
2.552610182e-14
2.552610191e-14
2.55261023e-14
2.552610382e-14
2.552610951e-14
2.552612923e-14
2.55261922e-14
2.552637579e-14
2.552685894e-14
2.552798341e-14
2.553020289e-14
2.553350599e-14
2.553443643e-14
2.553475572e-14
2.553508779e-14
2.553543332e-14
2.553579278e-14
2.553616667e-14
2.553655554e-14
2.553696002e-14
2.553738076e-14
2.553781846e-14
2.553827385e-14
2.553874769e-14
2.553924078e-14
2.553975394e-14
2.554028804e-14
2.554084398e-14
2.554142273e-14
2.554202526e-14
2.554265264e-14
2.554330596e-14
2.554398636e-14
2.554469505e-14
2.554543329e-14
2.554620242e-14
2.554700382e-14
2.554783895e-14
2.554870937e-14
2.554961667e-14
2.555056257e-14
2.555154885e-14
2.555257738e-14
2.555365015e-14
2.555476924e-14
2.555593685e-14
2.555715528e-14
2.555842698e-14
2.555975451e-14
2.556114058e-14
2.556258806e-14
2.556409997e-14
2.556567949e-14
2.556733e-14
2.556905504e-14
2.55708584e-14
2.557274405e-14
2.55747162e-14
2.557677931e-14
2.55789381e-14
2.558119757e-14
2.558356302e-14
2.558604005e-14
2.558863463e-14
2.559135306e-14
2.559420204e-14
2.559718866e-14
2.560032047e-14
2.560360547e-14
2.560705216e-14
2.561066956e-14
2.561446725e-14
2.561845544e-14
2.562264493e-14
2.562704725e-14
2.563167461e-14
2.563654002e-14
2.564165731e-14
2.564704117e-14
2.565270724e-14
2.565867214e-14
2.566495356e-14
2.567157029e-14
2.567854233e-14
2.568589095e-14
2.569363876e-14
2.57018098e-14
2.571042966e-14
2.571952551e-14
2.572912624e-14
2.573926259e-14
2.574996718e-14
2.576127472e-14
2.577322205e-14
2.578584831e-14
2.579919507e-14
2.581330648e-14
2.582822936e-14
2.584401344e-14
2.586071144e-14
2.587837931e-14
2.589707633e-14
2.591686538e-14
2.593781303e-14
2.595998983e-14
2.598347047e-14
2.600833399e-14
2.603466403e-14
2.606254903e-14
2.609208251e-14
2.612336326e-14
2.615649565e-14
2.619158988e-14
2.622876222e-14
2.626813534e-14
2.630983855e-14
2.635400813e-14
2.640078762e-14
2.645032815e-14
2.650278871e-14
2.655833655e-14
2.661714743e-14
2.667940602e-14
2.674530621e-14
2.681505148e-14
2.688885523e-14
2.696694116e-14
2.704954361e-14
2.713690795e-14
2.722929092e-14
2.732696099e-14
2.743019877e-14
2.753929734e-14
2.765456261e-14
2.777631371e-14
2.790488333e-14
2.804061808e-14
2.818387883e-14
2.833504106e-14
2.849449519e-14
2.86626469e-14
2.883991744e-14
2.902674393e-14
2.922357965e-14
2.943089431e-14
2.964917431e-14
2.987892294e-14
3.012066063e-14
3.037492515e-14
3.064227174e-14
3.092327331e-14
3.12185205e-14
3.152862182e-14
3.185420371e-14
3.219591054e-14
3.255440464e-14
3.293036626e-14
3.332449352e-14
3.373750226e-14
3.417012594e-14
3.462311547e-14
3.509723895e-14
3.559328142e-14
3.611204459e-14
3.665434647e-14
3.722102097e-14
3.781291749e-14
3.843090044e-14
3.90758487e-14
3.974865509e-14
4.045022572e-14
4.118147933e-14
4.194334663e-14
4.273676951e-14
4.356270026e-14
4.442210074e-14
4.531594152e-14
4.624520091e-14
4.721086404e-14
4.821392187e-14
4.925537011e-14
5.03362082e-14
5.145743817e-14
5.262006351e-14
5.382508803e-14
5.507351465e-14
5.636634418e-14
5.770457412e-14
5.908919738e-14
6.052120103e-14
6.200156502e-14
6.353126091e-14
6.511125061e-14
6.674248504e-14
6.842590293e-14
7.01624295e-14
7.195297525e-14
7.379843472e-14
7.56996853e-14
7.765758604e-14
7.967297652e-14
8.174667575e-14
8.387948113e-14
8.607216745e-14
8.832548593e-14
9.064016334e-14
9.30169012e-14
9.5456375e-14
9.79592336e-14
1.005260986e-13
1.031575638e-13
1.058541949e-13
1.086165293e-13
1.114450755e-13
1.143403137e-13
1.173026951e-13
1.203326426e-13
1.234305509e-13
1.265967871e-13
1.298316908e-13
1.331355756e-13
1.365087293e-13
1.399514152e-13
1.434638733e-13
1.470463218e-13
1.506989584e-13
1.544219621e-13
1.582154952e-13
1.620797053e-13
1.660147277e-13
1.700206879e-13
1.740977042e-13
1.782458906e-13
1.824653601e-13
1.867562281e-13
1.911186157e-13
1.955526538e-13
2.000584868e-13
2.046362775e-13
2.09286211e-13
2.140085001e-13
2.188033896e-13
2.236711626e-13
2.286121451e-13
2.336267127e-13
2.38715296e-13
2.438783878e-13
2.491165489e-13
2.54430416e-13
2.598207084e-13
2.652882357e-13
2.708339059e-13
2.764587336e-13
2.821638481e-13
2.879505028e-13
2.938200841e-13
2.997741211e-13
3.058142949e-13
3.119424495e-13
3.181606019e-13
3.244709531e-13
3.308758992e-13
3.373780431e-13
3.439802065e-13
3.506854419e-13
3.574970457e-13
3.644185712e-13
3.714538418e-13
3.786069649e-13
3.858823465e-13
3.932847055e-13
4.008190887e-13
4.08490887e-13
4.163058507e-13
4.242701073e-13
4.323901759e-13
4.406729896e-13
4.491259094e-13
4.577567416e-13
4.665737581e-13
4.755857164e-13
4.848018795e-13
4.942320367e-13
5.038865248e-13
5.137762492e-13
5.239127061e-13
5.343080048e-13
5.449748902e-13
5.559267669e-13
5.671777231e-13
5.787425537e-13
5.906367891e-13
6.028767209e-13
6.154794302e-13
6.284628155e-13
6.418456251e-13
6.556474872e-13
6.698889378e-13
6.84591454e-13
6.997774886e-13
7.154705052e-13
7.316950152e-13
7.484766148e-13
7.658420247e-13
7.83819131e-13
8.024370272e-13
8.217260591e-13
8.417178709e-13
8.624454535e-13
8.839431953e-13
9.06246935e-13
9.293940172e-13
9.534233505e-13
9.783754687e-13
1.004292595e-12
1.03121871e-12
1.059199623e-12
1.088283046e-12
1.118518676e-12
1.149958278e-12
1.182655775e-12
1.216667343e-12
1.252051515e-12
1.288869288e-12
1.327184244e-12
1.367062673e-12
1.408573715e-12
1.451789508e-12
1.496785356e-12
1.543639907e-12
1.592435361e-12
1.643257695e-12
1.696196918e-12
1.751347369e-12
1.808808046e-12
1.868682999e-12
1.931081784e-12
1.996119994e-12
2.06391989e-12
2.134611163e-12
2.208331833e-12
2.285229353e-12
2.365461937e-12
2.449200193e-12
2.536629118e-12
2.627950561e-12
2.723386258e-12
2.8231816e-12
2.927610304e-12
3.036980226e-12
3.15164061e-12
3.271991128e-12
3.398493176e-12
3.531684011e-12
3.672194435e-12
3.820770952e-12
3.978303546e-12
4.145860494e-12
4.324732055e-12
4.516485278e-12
4.723032797e-12
4.94671919e-12
5.190429405e-12
5.457724922e-12
5.753014734e-12
6.081770098e-12
6.45079425e-12
6.868561181e-12
7.345641155e-12
7.895235194e-12
8.533846425e-12
9.282123333e-12
1.016591892e-11
1.121762105e-11
1.247782323e-11
1.39974232e-11
1.584025828e-11
1.808641511e-11
2.083638586e-11
2.421628716e-11
2.83844132e-11
3.353946349e-11
3.993087243e-11
4.787177683e-11
5.775529353e-11
7.007495033e-11
8.545032745e-11
1.046592349e-10
1.286780871e-10
1.587325563e-10
1.963611134e-10
2.434947209e-10
3.0255677e-10
3.765883766e-10
4.694054416e-10
5.857954816e-10
7.317642358e-10
9.148445513e-10
1.14448315e-09
1.432524743e-09
1.793817762e-09
2.246971912e-09
2.815305162e-09
3.52802687e-09
4.421715043e-09
5.542159603e-09
6.946660578e-09
8.70689108e-09
1.091246048e-08
1.367534433e-08
1.713538531e-08
2.146711518e-08
2.688820233e-08
3.366989512e-08
4.214990851e-08
5.274829301e-08
6.5986931e-08
8.251342808e-08
1.031303064e-07
1.288305625e-07
1.608408239e-07
2.006735203e-07
2.501896754e-07
3.116741123e-07
3.879250377e-07
4.823601116e-07
5.99141199e-07
7.433200092e-07
9.2100673e-07
1.13956352e-06
1.407824307e-06
1.736341702e-06
2.137661012e-06
2.626620205e-06
3.220673441e-06
3.940234276e-06
4.80903314e-06
5.854482184e-06
7.108039266e-06
8.605561875e-06
1.038764124e-05
1.249990697e-05
1.499329307e-05
1.792425763e-05
2.13549498e-05
2.535331962e-05
2.999316816e-05
3.535413684e-05
4.152163623e-05
4.85867151e-05
5.664586989e-05
6.580079605e-05
7.615807206e-05
8.782877854e-05
0.0001009280391
0.0001155744781
0.0001318895978
0.0001499970996
0.0001700222568
0.0001920835631
0.0002163322852
0.0002428464833
0.0002719097323
0.000303635018
0.0003381461911
0.0003746622506
0.0004136242498
0.000454918065
0.0004983223342
0.0005434944295
0.0005899608024
0.0006371610346
0.000684499158
0.0007313826998
0.0007772506056
0.0008215436376
0.000864636497
0.0009039089763
0.0009394199308
0.0009700909253
0.0009950700447
0.001012017898
0.001019749018
0.00101667327
0.0010012434
0.0009727844194
0.0009309466609
0.000876535977
0.0008114806975
0.0007387066777
0.0006617603769
0.0005836546866
0.0005086375536
0.000438106463
0.0003742681525
0.0003174629295
0.0002678001344
0.0002249909314
0.0001885120961
0.0001572572589
0.0001307173617
0.0001085219634
9.003518894e-05
7.468033749e-05
6.195061241e-05
5.140839285e-05
4.268140568e-05
3.545537118e-05
2.947580096e-05
2.464631028e-05
2.064089662e-05
1.726185571e-05
1.446420421e-05
1.214358749e-05
1.021426934e-05
8.606576019e-06
7.26399506e-06
6.142249847e-06
5.200800074e-06
4.410479607e-06
3.745988884e-06
3.186442008e-06
2.714556265e-06
2.316003453e-06
1.978885768e-06
1.693309344e-06
1.451035574e-06
1.245195083e-06
1.070052575e-06
9.208131765e-07
7.934627682e-07
6.846362001e-07
5.915084192e-07
5.117043971e-07
4.432246103e-07
3.843832545e-07
3.337569847e-07
2.901423379e-07
2.525203222e-07
2.200269259e-07
1.919285255e-07
1.67601351e-07
1.465143141e-07
1.282146308e-07
1.123157651e-07
9.848730538e-08
8.644645259e-08
7.595085293e-08
6.679255476e-08
5.879290642e-08
5.17982428e-08
4.567623373e-08
4.031278876e-08
3.560943011e-08
3.148106011e-08
2.785406161e-08
2.466467952e-08
2.185764042e-08
1.93849736e-08
1.720500304e-08
1.528148453e-08
1.358286615e-08
1.208165374e-08
1.075386592e-08
9.578565402e-09
8.537455536e-09
7.614532638e-09
6.795786029e-09
6.068939011e-09
5.423224933e-09
4.849193414e-09
4.33854249e-09
3.883973068e-09
3.479062608e-09
3.118155386e-09
2.796267071e-09
2.509001671e-09
2.252479182e-09
2.023272508e-09
1.8183524e-09
1.635039375e-09
1.470961678e-09
1.3240185e-09
1.192347777e-09
1.074297962e-09
9.684032773e-10
8.733619815e-10
7.880172889e-10
7.113405903e-10
6.424166942e-10
5.804308333e-10
5.246572165e-10
4.744489371e-10
4.292290693e-10
3.88482807e-10
3.517505206e-10
3.186216179e-10
2.887291141e-10
2.617448258e-10
2.373751142e-10
2.15357112e-10
1.95455379e-10
1.774589326e-10
1.611786137e-10
1.464447448e-10
1.331050496e-10
1.210228028e-10
1.100751831e-10
1.001518076e-10
9.115342552e-11
8.299075514e-11
7.558344541e-11
6.88591503e-11
6.275270238e-11
5.720537464e-11
5.216422109e-11
4.758148713e-11
4.341408229e-11
3.962310838e-11
3.617343709e-11
3.303333164e-11
3.017410772e-11
2.756982961e-11
2.519703752e-11
2.3034503e-11
2.10630093e-11
1.926515418e-11
1.762517266e-11
1.612877772e-11
1.476301703e-11
1.351614409e-11
1.237750214e-11
1.133741976e-11
1.038711672e-11
9.518619166e-12
8.724683144e-12
7.998725651e-12
7.334762374e-12
6.727351524e-12
6.171543101e-12
5.662833058e-12
5.197121875e-12
4.770677128e-12
4.380099603e-12
4.022292654e-12
3.694434473e-12
3.393952972e-12
3.118503037e-12
2.865945917e-12
2.63433054e-12
2.421876574e-12
2.226959067e-12
2.048094505e-12
1.883928154e-12
1.733222583e-12
1.594847221e-12
1.467768885e-12
1.351043162e-12
1.243806583e-12
1.145269499e-12
1.054709606e-12
9.714660567e-13
8.949340854e-13
8.245601363e-13
7.598374158e-13
7.003018403e-13
6.455283471e-13
5.951275283e-13
5.487425744e-13
5.060464724e-13
4.667394543e-13
4.305466793e-13
3.972161043e-13
3.665165511e-13
3.382359372e-13
3.121796593e-13
2.88169121e-13
2.660403864e-13
2.456429408e-13
2.268385785e-13
2.095003634e-13
1.935116949e-13
1.787654412e-13
1.651631576e-13
1.526143635e-13
1.410358877e-13
1.303512595e-13
1.204901618e-13
1.113879219e-13
1.02985049e-13
9.522680951e-14
8.806284109e-14
8.144679192e-14
7.533599955e-14
6.969118734e-14
6.447619056e-14
5.965770485e-14
5.520505641e-14
5.108998889e-14
4.728646866e-14
4.377050961e-14
4.052000303e-14
3.751457389e-14
3.473543693e-14
3.21652759e-14
2.978812075e-14
2.758924384e-14
2.555506243e-14
2.367304393e-14
2.193162824e-14
2.032014711e-14
1.882875533e-14
1.744836686e-14
1.617059372e-14
1.498769473e-14
1.389251943e-14
1.28784657e-14
1.193943616e-14
1.106979969e-14
1.026435363e-14
9.518292872e-15
8.827176019e-15
8.18689895e-15
7.593669539e-15
7.043983053e-15
6.534600022e-15
6.062525026e-15
5.624988818e-15
5.219428703e-15
4.843477746e-15
4.494944325e-15
4.171803417e-15
3.872180996e-15
3.594343877e-15
3.336687268e-15
3.097725451e-15
2.876086381e-15
2.670498063e-15
2.479782891e-15
2.302851292e-15
2.138695042e-15
1.986380991e-15
1.845043442e-15
1.713882148e-15
1.592155371e-15
1.479177027e-15
1.374310827e-15
1.276967646e-15
1.186600217e-15
1.10270377e-15
1.024809606e-15
9.524831208e-16
8.853217021e-16
8.229524677e-16
7.650289049e-16
7.112309838e-16
6.612613509e-16
6.148447e-16
5.71725105e-16
5.316662547e-16
4.944485127e-16
4.598683903e-16
4.277367554e-16
3.978782042e-16
3.701301557e-16
3.443410444e-16
3.203715386e-16
2.980916911e-16
2.773817906e-16
2.581295538e-16
2.402308309e-16
2.235902448e-16
2.081176589e-16
1.937306555e-16
1.803519036e-16
1.679094649e-16
1.56338082e-16
1.455757921e-16
1.35565333e-16
1.262535214e-16
1.175905996e-16
1.095317155e-16
1.020341952e-16
9.505825337e-17
8.856687352e-17
8.252618816e-17
7.690474129e-17
7.167301951e-17
6.68039692e-17
6.227177356e-17
5.805315349e-17
5.412564614e-17
5.046921027e-17
4.706474362e-17
4.389491044e-17
4.094277891e-17
3.819342403e-17
3.563315585e-17
3.324842145e-17
3.102733652e-17
2.895797573e-17
2.703003449e-17
2.523384476e-17
2.356052893e-17
2.200109805e-17
2.054818542e-17
1.919389491e-17
1.793136076e-17
1.675467821e-17
1.565779665e-17
1.463510966e-17
1.368155233e-17
1.279233219e-17
1.196305988e-17
1.118966145e-17
1.046825224e-17
9.795231218e-18
9.167564389e-18
8.581742828e-18
8.035109441e-18
7.52512201e-18
7.048791245e-18
6.604332505e-18
6.189369182e-18
5.801977964e-18
5.440177163e-18
5.102347597e-18
4.786637934e-18
4.491722374e-18
4.21605478e-18
3.958328743e-18
3.71744929e-18
3.492320166e-18
3.282067786e-18
3.085382817e-18
2.901456087e-18
2.729126327e-18
2.56807957e-18
2.417437103e-18
2.276469323e-18
2.144536741e-18
2.021044729e-18
1.905260605e-18
1.796880103e-18
1.695467715e-18
1.600587626e-18
1.511479192e-18
1.428015646e-18
1.349485643e-18
1.275870111e-18
1.20672687e-18
1.14186108e-18
1.081000008e-18
1.023794009e-18
9.700760666e-19
9.194012294e-19
8.718940674e-19
8.269804464e-19
7.846778035e-19
7.451647888e-19
7.078534276e-19
6.728341225e-19
6.39836593e-19
6.087830347e-19
5.793968216e-19
5.51784822e-19
5.259141849e-19
5.014674369e-19
4.783359317e-19
4.565873393e-19
4.359331526e-19
4.16444075e-19
3.980513508e-19
3.807505951e-19
3.64302938e-19
3.487269446e-19
3.338510249e-19
3.197318344e-19
3.063906759e-19
2.938078704e-19
2.817906709e-19
2.704040973e-19
2.595651925e-19
2.491791262e-19
2.391311418e-19
2.297447404e-19
2.20874708e-19
2.124050882e-19
2.042534649e-19
1.96571619e-19
1.892251542e-19
1.822818347e-19
1.75489516e-19
1.690587693e-19
1.63067796e-19
1.573540002e-19
1.518712439e-19
1.465976349e-19
1.416064237e-19
1.368047372e-19
1.323267312e-19
1.280762312e-19
1.239900499e-19
1.200873158e-19
1.164066585e-19
1.128201177e-19
1.092582425e-19
1.059185677e-19
1.028269443e-19
9.997915358e-20
9.712607744e-20
9.446873664e-20
9.195609624e-20
8.950012308e-20
8.699471353e-20
8.470490998e-20
8.241168564e-20
8.019947582e-20
7.803963155e-20
7.593051856e-20
7.385434644e-20
7.184754849e-20
6.987673102e-20
6.797886476e-20
6.610390271e-20
6.415837723e-20
6.228208891e-20
6.050730936e-20
5.88291164e-20
5.711297703e-20
5.548161439e-20
5.391707759e-20
5.240150722e-20
5.088155942e-20
4.945333311e-20
4.801663878e-20
4.6554163e-20
4.531344475e-20
4.412030166e-20
4.296512455e-20
4.184554989e-20
4.067817864e-20
3.951484069e-20
3.835229746e-20
3.719704581e-20
3.616940578e-20
3.528373686e-20
3.44137111e-20
3.351175127e-20
3.263982563e-20
3.175953719e-20
3.091550476e-20
3.00823876e-20
2.92699675e-20
2.854369227e-20
2.782600395e-20
2.712065916e-20
2.634576895e-20
2.560634097e-20
2.488333255e-20
2.425732329e-20
2.365358113e-20
2.310812453e-20
2.256890423e-20
2.207932934e-20
2.154951841e-20
2.110540962e-20
2.057349871e-20
2.004769626e-20
1.955846486e-20
1.903645459e-20
1.844271207e-20
1.78705039e-20
1.728023677e-20
1.673086976e-20
1.626919875e-20
1.582968971e-20
1.534519718e-20
1.493427021e-20
1.458701419e-20
1.421785453e-20
1.385121132e-20
1.348272356e-20
1.312172448e-20
1.275609726e-20
1.24145978e-20
1.202173176e-20
1.167088995e-20
1.139612857e-20
1.106761176e-20
1.077250769e-20
1.045369874e-20
1.012031622e-20
9.862365557e-21
9.587806597e-21
9.308941026e-21
9.100243134e-21
8.877639913e-21
8.666060013e-21
8.436114995e-21
8.182082074e-21
8.00713224e-21
7.815978898e-21
7.667466206e-21
7.497479641e-21
7.336731335e-21
7.23062438e-21
7.122761214e-21
6.981887641e-21
6.870832208e-21
6.764291576e-21
6.621770743e-21
5.720678022e-21
3.709482193e-21
2.35501889e-21
2.116474929e-21
1.476233933e-21
1.443230454e-21
1.275655021e-21
7.911255209e-22
2.731898253e-22
0
2.693980003e-22
2.492807213e-22
2.301186624e-22
7.56267599e-23
2.861530513e-22
3.60533084e-22
9.565577432e-23
1.17711073e-22
8.583160957e-23
9.074072098e-23
2.173056513e-22
9.280782754e-23
1.645998735e-24
4.889620186e-23
2.685008638e-23
3.529757855e-23
1.772126818e-23
2.191930629e-23
1.239948179e-23
7.127734913e-24
4.342852912e-25
6.404190306e-24
4.040527613e-24
2.0530528e-24
1.126789076e-23
9.661313915e-24
3.993195484e-24
3.073066777e-24
2.907681437e-24
2.337248775e-25
7.396409693e-24
3.371000623e-24
1.634035124e-23
3.422710694e-23
3.658265194e-23
1.979246629e-23
4.060569766e-25
2.721447426e-23
0
1.821102461e-24
1.555474601e-23
2.062830415e-23
6.534553382e-25
1.519169213e-24
1.311082156e-23
4.552198274e-23
3.757543665e-23
2.048555769e-23
2.079029156e-23
2.863418377e-25
1.372767448e-23
4.466023434e-24
3.747956587e-24
2.047651486e-24
3.347661634e-25
0
6.763401101e-25
1.166085198e-24
2.253423358e-25
1.660580042e-24
5.35120751e-26
1.232113812e-24
4.446765949e-24
6.279060587e-24
1.61581025e-23
7.086338812e-24
5.814291235e-24
8.937890153e-24
3.288363115e-24
4.550979771e-24
8.155390005e-25
9.075085061e-25
1.54979735e-24
9.925345075e-24
3.238414095e-24
4.200504232e-27
1.258642698e-25
1.242695047e-25
5.321679897e-25
1.120208644e-24
1.322758799e-24
4.971355998e-25
7.749917602e-26
0
9.152140357e-26
3.5973817e-27
0
2.557851104e-25
5.897073069e-26
9.705903137e-26
3.211493121e-27
2.194682104e-25
2.387272039e-25
1.6299724e-25
1.269262017e-25
2.840384322e-26
1.474568322e-25
2.582433626e-25
8.650171102e-26
4.373932127e-27
1.144025276e-25
6.053058925e-26
6.069573146e-27
6.435803105e-26
1.40362359e-25
1.395650143e-25
2.372042947e-25
1.152048871e-25
1.770600746e-25
2.308316553e-25
6.779821622e-26
1.907744519e-25
2.12056598e-25
3.506080119e-26
1.484260332e-25
2.58362613e-26
1.296716674e-25
2.065910466e-26
2.236381223e-25
1.175646921e-25
2.380529195e-26
6.689562266e-26
1.499461101e-26
5.223477403e-27
4.408639731e-25
3.180065193e-25
2.783201766e-25
3.148851538e-25
5.244221681e-25
1.058338507e-25
6.822663915e-26
4.077544378e-27
3.527220304e-25
3.422243173e-26
1.277742928e-25
2.175825704e-25
4.958749288e-26
1.490697663e-25
1.274304794e-25
8.181671074e-26
2.337603017e-25
1.894424946e-25
3.772191799e-25
2.233988148e-25
2.131670354e-25
3.350083098e-25
3.751510655e-26
4.892376371e-25
1.694350963e-25
2.88422805e-25
4.526289126e-25
1.505103534e-25
8.078081962e-26
1.776442409e-25
3.887475201e-25
9.784940522e-26
7.736350563e-26
1.253062137e-26
8.520045611e-26
6.781090323e-26
2.647670315e-26
2.311835807e-26
0
5.884430351e-26
9.45881098e-26
1.673723089e-25
3.486893503e-25
3.015232003e-25
1.378370722e-25
2.39449961e-25
3.344660737e-25
4.065788678e-25
1.921770799e-25
2.174746636e-25
2.346439971e-25
1.001111871e-25
2.974248785e-26
2.377534987e-25
2.36036403e-25
1.631393398e-26
1.105236818e-25
1.784296952e-25
1.306613054e-26
2.499724241e-25
2.185153124e-25
6.597555046e-26
4.940425819e-25
2.484877651e-25
3.402816399e-25
4.263576864e-27
0
1.109803396e-26
1.712239395e-25
5.032513881e-26
5.337574203e-27
1.352343636e-25
2.336467285e-25
2.590665996e-26
1.274291631e-26
2.555983945e-25
1.827520913e-26
6.639487376e-26
8.497121482e-27
2.301954786e-26
7.892211708e-26
3.8862432e-26
2.641126889e-26
2.358904478e-25
5.948741487e-26
2.838691232e-26
4.207355239e-26
1.808641852e-25
7.486068237e-26
1.330368545e-25
1.682883868e-25
2.273469474e-26
6.174956271e-27
1.756948989e-25
6.866790477e-26
5.747642451e-26
1.335057262e-25
1.889333185e-25
4.034780059e-27
7.83165314e-26
0
1.451635178e-25
2.887613182e-25
1.257277997e-25
8.962434739e-26
0
2.313899366e-26
3.733843349e-29
0
1.122365435e-25
0
0
0
2.918698271e-25
7.886602265e-26
0
)
;

boundaryField
{
    inlet
    {
        type            fixedValue;
        value           uniform 0;
    }
    outlet
    {
        type            zeroGradient;
    }
    wall
    {
        type            empty;
    }
}


// ************************************************************************* //
