/*--------------------------------*- C++ -*----------------------------------*\
  =========                 |
  \\      /  F ield         | OpenFOAM: The Open Source CFD Toolbox
   \\    /   O peration     | Website:  https://openfoam.org
    \\  /    A nd           | Version:  7
     \\/     M anipulation  |
\*---------------------------------------------------------------------------*/
FoamFile
{
    version     2.0;
    format      ascii;
    class       volScalarField;
    location    "0.000558243009";
    object      C2H3_0;
}
// * * * * * * * * * * * * * * * * * * * * * * * * * * * * * * * * * * * * * //

dimensions      [0 0 0 0 0 0 0];

internalField   nonuniform List<scalar> 
1500
(
1.083328587e-26
9.993147219e-27
8.90165554e-27
7.899949411e-27
7.19329517e-27
6.772043048e-27
6.550644976e-27
6.446393309e-27
6.402045456e-27
6.384743145e-27
6.378264173e-27
6.375624475e-27
6.374201137e-27
6.37315145e-27
6.372263255e-27
6.371506368e-27
6.370881926e-27
6.370383397e-27
6.369994388e-27
6.369695288e-27
6.369469032e-27
6.36930356e-27
6.369191359e-27
6.369127437e-27
6.369107061e-27
6.369124182e-27
6.369170892e-27
6.369237802e-27
6.36931499e-27
6.369393092e-27
6.369464209e-27
6.369522434e-27
6.369563987e-27
6.369587025e-27
6.369591278e-27
6.369577636e-27
6.369547778e-27
6.36950387e-27
6.369448369e-27
6.369383878e-27
6.369313053e-27
6.369238507e-27
6.3691627e-27
6.369087828e-27
6.369015713e-27
6.36894771e-27
6.368884674e-27
6.368826958e-27
6.368774472e-27
6.368726776e-27
6.368683198e-27
6.368642954e-27
6.368605271e-27
6.368569474e-27
6.368535064e-27
6.368501756e-27
6.368469495e-27
6.368438451e-27
6.368408998e-27
6.368381674e-27
6.368357147e-27
6.368336168e-27
6.368319529e-27
6.368308021e-27
6.368302392e-27
6.368303308e-27
6.368311318e-27
6.368326813e-27
6.368350005e-27
6.368380899e-27
6.36841928e-27
6.368464709e-27
6.368516519e-27
6.368573836e-27
6.368635599e-27
6.368700589e-27
6.36876747e-27
6.368834824e-27
6.368901205e-27
6.368965172e-27
6.369025343e-27
6.369080424e-27
6.369129253e-27
6.369170823e-27
6.369204309e-27
6.369229084e-27
6.369244728e-27
6.369251033e-27
6.369247997e-27
6.369235821e-27
6.369214897e-27
6.369185795e-27
6.369149243e-27
6.369106106e-27
6.369057364e-27
6.369004084e-27
6.368947389e-27
6.36888843e-27
6.368828353e-27
6.368768269e-27
6.368709221e-27
6.368652155e-27
6.368597895e-27
6.36854712e-27
6.368500343e-27
6.368457908e-27
6.368419977e-27
6.368386538e-27
6.368357419e-27
6.368332298e-27
6.368310736e-27
6.368292202e-27
6.368276103e-27
6.368261823e-27
6.368248755e-27
6.36823633e-27
6.368224043e-27
6.368211479e-27
6.368198323e-27
6.36818437e-27
6.368169523e-27
6.368153792e-27
6.368137277e-27
6.368120156e-27
6.368102665e-27
6.36808508e-27
6.368067695e-27
6.36805081e-27
6.36803471e-27
6.368019661e-27
6.368005902e-27
6.367993641e-27
6.367983058e-27
6.367974311e-27
6.36796754e-27
6.367962881e-27
6.367960465e-27
6.367960432e-27
6.367962935e-27
6.367968139e-27
6.367976222e-27
6.367987372e-27
6.368001776e-27
6.368019617e-27
6.368041056e-27
6.368066223e-27
6.368095204e-27
6.368128025e-27
6.368164651e-27
6.368204966e-27
6.368248781e-27
6.368295821e-27
6.368345737e-27
6.368398106e-27
6.368452444e-27
6.368508213e-27
6.368564841e-27
6.368621732e-27
6.368678281e-27
6.368733891e-27
6.368787986e-27
6.368840019e-27
6.368889482e-27
6.368935912e-27
6.368978891e-27
6.369018051e-27
6.369053065e-27
6.369083651e-27
6.369109562e-27
6.369130585e-27
6.369146537e-27
6.369157262e-27
6.369162634e-27
6.369162556e-27
6.369156966e-27
6.369145841e-27
6.369129209e-27
6.369107154e-27
6.369079835e-27
6.369047489e-27
6.369010453e-27
6.368969172e-27
6.368924217e-27
6.368876289e-27
6.368826231e-27
6.368775024e-27
6.368723785e-27
6.368673744e-27
6.36862622e-27
6.368582576e-27
6.36854417e-27
6.368512296e-27
6.368488121e-27
6.368472625e-27
6.368466549e-27
6.368470363e-27
6.368484252e-27
6.368508134e-27
6.368541693e-27
6.368584446e-27
6.368635816e-27
6.368695207e-27
6.368762065e-27
6.368835914e-27
6.368916345e-27
6.369002958e-27
6.369095253e-27
6.369192484e-27
6.369293488e-27
6.369396524e-27
6.369499166e-27
6.369598273e-27
6.369690083e-27
6.369770459e-27
6.369835288e-27
6.369881029e-27
6.369905364e-27
6.369907887e-27
6.369890749e-27
6.369859143e-27
6.369821524e-27
6.369789468e-27
6.369777082e-27
6.369799946e-27
6.369873597e-27
6.370011646e-27
6.370223688e-27
6.370513203e-27
6.370875732e-27
6.371297604e-27
6.371755501e-27
6.372217107e-27
6.372643006e-27
6.372989885e-27
6.373214944e-27
6.373281282e-27
6.373163815e-27
6.372855197e-27
6.372371044e-27
6.371753742e-27
6.371074122e-27
6.370430388e-27
6.369943962e-27
6.369752236e-27
6.369999145e-27
6.370824968e-27
6.372357235e-27
6.374694974e-27
6.377845267e-27
6.381443425e-27
6.382687259e-27
6.383006995e-27
6.383332346e-27
6.383663082e-27
6.383999132e-27
6.384340478e-27
6.384687146e-27
6.385039191e-27
6.385396688e-27
6.385759724e-27
6.386128387e-27
6.386502772e-27
6.386882974e-27
6.38726909e-27
6.387661223e-27
6.388059481e-27
6.388463978e-27
6.388874835e-27
6.389292179e-27
6.389716147e-27
6.390146881e-27
6.390584535e-27
6.39102927e-27
6.391481258e-27
6.391940682e-27
6.392407734e-27
6.392882621e-27
6.393365559e-27
6.39385678e-27
6.394356529e-27
6.394865066e-27
6.395382669e-27
6.39590963e-27
6.396446262e-27
6.396992895e-27
6.397549881e-27
6.398117594e-27
6.398696432e-27
6.399286814e-27
6.39988919e-27
6.400504036e-27
6.401131858e-27
6.401773195e-27
6.402428617e-27
6.403098734e-27
6.403784192e-27
6.404485679e-27
6.405203928e-27
6.405939717e-27
6.406693876e-27
6.407467285e-27
6.408260885e-27
6.409075674e-27
6.409912719e-27
6.410773154e-27
6.411658186e-27
6.412569104e-27
6.41350728e-27
6.414474177e-27
6.415471355e-27
6.416500477e-27
6.417563317e-27
6.41866177e-27
6.419797853e-27
6.420973722e-27
6.422191677e-27
6.423454175e-27
6.424763836e-27
6.426123461e-27
6.42753604e-27
6.429004765e-27
6.430533047e-27
6.432124531e-27
6.43378311e-27
6.435512943e-27
6.437318474e-27
6.439204452e-27
6.441175951e-27
6.443238392e-27
6.445397569e-27
6.44765967e-27
6.45003131e-27
6.452519554e-27
6.455131947e-27
6.457876552e-27
6.460761978e-27
6.463797419e-27
6.466992689e-27
6.470358267e-27
6.473905336e-27
6.477645828e-27
6.481592473e-27
6.485758847e-27
6.490159427e-27
6.494809642e-27
6.499725935e-27
6.504925822e-27
6.510427957e-27
6.516252197e-27
6.522419672e-27
6.528952861e-27
6.535875665e-27
6.543213486e-27
6.550993315e-27
6.559243812e-27
6.5679954e-27
6.577280354e-27
6.587132902e-27
6.59758932e-27
6.608688038e-27
6.620469746e-27
6.632977501e-27
6.646256844e-27
6.660355911e-27
6.675325557e-27
6.691219472e-27
6.70809431e-27
6.726009814e-27
6.745028943e-27
6.765218009e-27
6.786646805e-27
6.809388741e-27
6.833520983e-27
6.859124586e-27
6.886284636e-27
6.915090387e-27
6.945635397e-27
6.978017669e-27
7.012339787e-27
7.04870905e-27
7.087237609e-27
7.128042595e-27
7.171246248e-27
7.216976047e-27
7.265364821e-27
7.316550877e-27
7.370678101e-27
7.42789607e-27
7.488360148e-27
7.552231576e-27
7.619677557e-27
7.690871333e-27
7.765992246e-27
7.845225797e-27
7.928763691e-27
8.016803867e-27
8.109550524e-27
8.207214127e-27
8.310011405e-27
8.418165328e-27
8.531905078e-27
8.651465999e-27
8.777089532e-27
8.909023135e-27
9.047520185e-27
9.192839865e-27
9.345247028e-27
9.50501205e-27
9.672410658e-27
9.847723743e-27
1.003123716e-26
1.022324148e-26
1.042403179e-26
1.063390738e-26
1.085317149e-26
1.1082131e-26
1.132109611e-26
1.157038002e-26
1.183029853e-26
1.210116972e-26
1.238331354e-26
1.267705137e-26
1.298270567e-26
1.330059949e-26
1.363105603e-26
1.39743982e-26
1.433094812e-26
1.470102667e-26
1.508495296e-26
1.548304387e-26
1.589561353e-26
1.632297278e-26
1.676542872e-26
1.722328413e-26
1.769683701e-26
1.818638004e-26
1.869220007e-26
1.921457763e-26
1.975378642e-26
2.031009287e-26
2.088375558e-26
2.147502496e-26
2.208414271e-26
2.271134143e-26
2.33568442e-26
2.402086419e-26
2.470360431e-26
2.540525688e-26
2.612600329e-26
2.686601374e-26
2.762544701e-26
2.84044502e-26
2.920315862e-26
3.002169558e-26
3.086017231e-26
3.171868793e-26
3.259732941e-26
3.349617159e-26
3.441527726e-26
3.53546973e-26
3.631447082e-26
3.729462542e-26
3.829517744e-26
3.93161323e-26
4.035748488e-26
4.141922e-26
4.250131287e-26
4.360372969e-26
4.472642827e-26
4.586935873e-26
4.703246421e-26
4.821568175e-26
4.941894315e-26
5.06421759e-26
5.188530425e-26
5.31482503e-26
5.443093514e-26
5.573328012e-26
5.705520819e-26
5.839664524e-26
5.975752165e-26
6.113777378e-26
6.253734569e-26
6.395619077e-26
6.539427364e-26
6.6851572e-26
6.832807862e-26
6.982380346e-26
7.133877579e-26
7.28730465e-26
7.442669046e-26
7.5999809e-26
7.759253245e-26
7.920502284e-26
8.08374767e-26
8.249012794e-26
8.416325082e-26
8.585716317e-26
8.75722295e-26
8.93088645e-26
9.106753639e-26
9.284877064e-26
9.465315363e-26
9.648133656e-26
9.833403943e-26
1.002120552e-25
1.021162541e-25
1.04047588e-25
1.060070953e-25
1.079959056e-25
1.100152448e-25
1.120664326e-25
1.141508431e-25
1.162697757e-25
1.184252266e-25
1.206192653e-25
1.228539806e-25
1.251310375e-25
1.274524527e-25
1.298204971e-25
1.322376272e-25
1.347064699e-25
1.372298244e-25
1.39810667e-25
1.424521604e-25
1.451576697e-25
1.479308114e-25
1.507756083e-25
1.536966359e-25
1.566976984e-25
1.597830227e-25
1.629571306e-25
1.66224568e-25
1.695904834e-25
1.730605062e-25
1.766403734e-25
1.803360556e-25
1.841538083e-25
1.881001908e-25
1.921820771e-25
1.964066669e-25
2.007814967e-25
2.053144519e-25
2.100137789e-25
2.148880982e-25
2.199464175e-25
2.251981455e-25
2.306531066e-25
2.363215558e-25
2.422141943e-25
2.483421863e-25
2.547171762e-25
2.613513062e-25
2.68257236e-25
2.754481621e-25
2.829378395e-25
2.907406031e-25
2.988713919e-25
3.073457729e-25
3.161799676e-25
3.253908798e-25
3.349961242e-25
3.450140579e-25
3.554638129e-25
3.663653315e-25
3.777394027e-25
3.896077021e-25
4.019928337e-25
4.14918375e-25
4.284089244e-25
4.424901529e-25
4.57188859e-25
4.725330277e-25
4.885518949e-25
5.052760163e-25
5.22737343e-25
5.409693047e-25
5.600069006e-25
5.798868013e-25
6.006474624e-25
6.223292537e-25
6.449746065e-25
6.686281841e-25
6.933370811e-25
7.191510595e-25
7.461228307e-25
7.743083964e-25
8.037674662e-25
8.34563972e-25
8.66766708e-25
9.004501338e-25
9.356953886e-25
9.725915781e-25
1.011237418e-24
1.051743339e-24
1.094234197e-24
1.138852762e-24
1.185764241e-24
1.235162123e-24
1.287275777e-24
1.342380316e-24
1.400809437e-24
1.462972133e-24
1.529374471e-24
1.600647996e-24
1.677586781e-24
1.761195785e-24
1.852754011e-24
1.953896995e-24
2.0667246e-24
2.193941933e-24
2.339043585e-24
2.50655464e-24
2.702345999e-24
2.934047123e-24
3.211586446e-24
3.547899273e-24
3.959855433e-24
4.469475507e-24
5.105526223e-24
5.905614446e-24
6.91893734e-24
8.20989693e-24
9.862854512e-24
1.198838995e-23
1.473155036e-23
1.82827324e-23
2.289205681e-23
2.888838176e-23
3.670449037e-23
4.691051354e-23
6.025836418e-23
7.774093284e-23
1.006711299e-22
1.307876956e-22
1.703972378e-22
2.225654865e-22
2.913756856e-22
3.822789738e-22
5.025714137e-22
6.620462895e-22
8.738903081e-22
1.155921244e-21
1.532306624e-21
2.035964747e-21
2.711940665e-21
3.62218618e-21
4.852377965e-21
6.521718641e-21
8.797142956e-21
1.191409257e-20
1.620718333e-20
2.215592456e-20
3.04535893e-20
4.211209766e-20
5.862358784e-20
8.221232898e-20
1.162324791e-19
1.658044765e-19
2.388473579e-19
3.477775683e-19
5.123466575e-19
7.644554468e-19
1.156453641e-18
1.775688264e-18
2.770447236e-18
4.397045892e-18
7.106844408e-18
1.171002724e-17
1.968956956e-17
3.381408411e-17
5.935497399e-17
1.065427222e-16
1.955931791e-16
3.671057733e-16
7.037256601e-16
1.37536267e-15
2.73321133e-15
5.503128109e-15
1.117609666e-14
2.277631235e-14
4.632357324e-14
9.352150835e-14
1.86560551e-13
3.666426144e-13
7.095381945e-13
1.355438786e-12
2.56816524e-12
4.851989378e-12
9.178799741e-12
1.743592841e-11
3.332431229e-11
6.413024344e-11
1.241339252e-10
2.410524064e-10
4.679240675e-10
9.042622995e-10
1.731791316e-09
3.273927046e-09
6.078543099e-09
1.106947077e-08
1.96974833e-08
3.419267464e-08
5.74662015e-08
9.373350024e-08
1.48800866e-07
2.298677155e-07
3.451955057e-07
5.038138265e-07
7.160427346e-07
9.956320864e-07
1.362629763e-06
1.846580128e-06
2.489300897e-06
3.355442438e-06
4.489985442e-06
5.972564227e-06
7.867956589e-06
1.024166868e-05
1.306589516e-05
1.632569527e-05
1.994802339e-05
2.386727813e-05
2.790387955e-05
3.18491725e-05
3.547845383e-05
3.857065326e-05
4.092223812e-05
4.237131526e-05
4.282390632e-05
4.227031762e-05
4.078317561e-05
3.853250093e-05
3.570805245e-05
3.25215761e-05
2.916864404e-05
2.58192834e-05
2.258541709e-05
1.954253555e-05
1.676435599e-05
1.427730128e-05
1.20867277e-05
1.018515761e-05
8.549448111e-06
7.156092151e-06
5.97648102e-06
4.976953103e-06
4.141982284e-06
3.44023437e-06
2.849457529e-06
2.35711167e-06
1.947640209e-06
1.607684073e-06
1.325879323e-06
1.092611206e-06
8.998297231e-07
7.406085977e-07
6.092851333e-07
5.010737938e-07
4.119807691e-07
3.386806262e-07
2.784102942e-07
2.288783479e-07
1.881877616e-07
1.547704392e-07
1.273319627e-07
1.048051394e-07
8.631108114e-08
7.112668793e-08
5.865755129e-08
4.841542684e-08
3.999954333e-08
3.308112278e-08
2.73905813e-08
2.270696173e-08
1.884922085e-08
1.566905425e-08
1.304499432e-08
1.087756022e-08
9.08527609e-09
7.601404801e-09
6.371270716e-09
5.350066656e-09
4.501058612e-09
3.794116803e-09
3.204514264e-09
2.71194459e-09
2.299719076e-09
1.954110597e-09
1.66381747e-09
1.419525352e-09
1.213549235e-09
1.039540833e-09
8.922493592e-10
7.673258932e-10
6.611633151e-10
5.707652811e-10
4.936389006e-10
4.277067691e-10
3.712348077e-10
3.227730181e-10
2.811067946e-10
2.4521687e-10
2.142463286e-10
1.874734048e-10
1.642890265e-10
1.441782484e-10
1.267048816e-10
1.114987495e-10
9.824510549e-11
8.667583184e-11
7.656210786e-11
6.770829209e-11
5.994680875e-11
5.313386601e-11
4.714586472e-11
4.187638068e-11
3.723362439e-11
3.313829893e-11
2.952179023e-11
2.632463541e-11
2.349522419e-11
2.098869585e-11
1.876600075e-11
1.679310035e-11
1.504028414e-11
1.348158545e-11
1.209428097e-11
1.085846119e-11
9.756661266e-12
8.773543168e-12
7.895621684e-12
7.111027773e-12
6.409303933e-12
5.781226982e-12
5.218654363e-12
4.714390676e-12
4.262071615e-12
3.856062914e-12
3.491372252e-12
3.163572361e-12
2.868733833e-12
2.603366332e-12
2.364367117e-12
2.148975895e-12
1.954735207e-12
1.779455619e-12
1.621185112e-12
1.478182136e-12
1.348891869e-12
1.231925279e-12
1.126040644e-12
1.030127229e-12
9.431908465e-13
8.643410915e-13
7.927800262e-13
7.277921596e-13
6.68735558e-13
6.150339552e-13
5.661697456e-13
5.216777568e-13
4.811397115e-13
4.441792979e-13
4.104577802e-13
3.796700871e-13
3.515413251e-13
3.258236661e-13
3.022935694e-13
2.807493012e-13
2.610087165e-13
2.429072763e-13
2.262962731e-13
2.110412425e-13
1.9702054e-13
1.841240667e-13
1.722521251e-13
1.613143941e-13
1.512290073e-13
1.419217283e-13
1.333252062e-13
1.253783083e-13
1.180255204e-13
1.112164064e-13
1.049051213e-13
9.90499741e-14
9.361303394e-14
8.855977314e-14
8.385874712e-14
7.948130563e-14
7.540133137e-14
7.159500446e-14
6.804058936e-14
6.471824285e-14
6.160983973e-14
5.86988155e-14
5.597002474e-14
5.340961171e-14
5.100489414e-14
4.874425714e-14
4.661705818e-14
4.461353999e-14
4.272475152e-14
4.094247723e-14
3.925917188e-14
3.766790185e-14
3.616229193e-14
3.47364764e-14
3.338505563e-14
3.210305512e-14
3.088588943e-14
2.972932933e-14
2.862947103e-14
2.758270909e-14
2.658571133e-14
2.563539564e-14
2.472890943e-14
2.386361072e-14
2.303705093e-14
2.224695886e-14
2.149122628e-14
2.076789475e-14
2.007514375e-14
1.941127954e-14
1.877472506e-14
1.816401097e-14
1.757776706e-14
1.701471446e-14
1.64736587e-14
1.595348318e-14
1.545314346e-14
1.497166145e-14
1.450812073e-14
1.406166182e-14
1.363147819e-14
1.32168121e-14
1.281695097e-14
1.243122454e-14
1.205900165e-14
1.169968753e-14
1.135272119e-14
1.101757316e-14
1.069374313e-14
1.038075818e-14
1.007817088e-14
9.785557471e-15
9.502516483e-15
9.228667185e-15
8.963648304e-15
8.707116602e-15
8.45874608e-15
8.218226625e-15
7.985263011e-15
7.759574197e-15
7.540892309e-15
7.328961876e-15
7.123539211e-15
6.924391619e-15
6.731296706e-15
6.544041997e-15
6.36242414e-15
6.186248709e-15
6.015329322e-15
5.849487574e-15
5.688552388e-15
5.53235969e-15
5.38075208e-15
5.233578466e-15
5.090693696e-15
4.951958341e-15
4.817238327e-15
4.686404827e-15
4.559333812e-15
4.43590597e-15
4.316006416e-15
4.199524482e-15
4.086353542e-15
3.976390838e-15
3.86953731e-15
3.765697414e-15
3.664778961e-15
3.566693024e-15
3.471353764e-15
3.378678278e-15
3.288586542e-15
3.201001201e-15
3.115847471e-15
3.033053101e-15
2.952548282e-15
2.87426554e-15
2.798139533e-15
2.724107072e-15
2.65210701e-15
2.582080234e-15
2.513969463e-15
2.447719185e-15
2.383275717e-15
2.32058714e-15
2.259603065e-15
2.20027474e-15
2.142554889e-15
2.086397745e-15
2.031758891e-15
1.978595281e-15
1.926865193e-15
1.876528223e-15
1.827545104e-15
1.779877816e-15
1.733489472e-15
1.688344298e-15
1.644407594e-15
1.601645622e-15
1.56002574e-15
1.519516233e-15
1.480086309e-15
1.441706116e-15
1.404346605e-15
1.367979648e-15
1.332577935e-15
1.298114932e-15
1.26456486e-15
1.231902703e-15
1.200104148e-15
1.169145592e-15
1.139004133e-15
1.109657485e-15
1.081084023e-15
1.053262706e-15
1.026173135e-15
9.997954682e-16
9.741104284e-16
9.490993021e-16
9.247438881e-16
9.010264462e-16
8.779298328e-16
8.554373291e-16
8.335326958e-16
8.122001467e-16
7.914243285e-16
7.71190307e-16
7.514835909e-16
7.322900809e-16
7.135960915e-16
6.953882488e-16
6.776536179e-16
6.603795632e-16
6.435538367e-16
6.271645282e-16
6.112000499e-16
5.956491508e-16
5.805008286e-16
5.657444317e-16
5.513695624e-16
5.373661429e-16
5.237243898e-16
5.104347507e-16
4.974879138e-16
4.848748585e-16
4.725867723e-16
4.606151265e-16
4.489516013e-16
4.375880804e-16
4.265166966e-16
4.157298007e-16
4.052199168e-16
3.949797938e-16
3.850023675e-16
3.752807464e-16
3.658082679e-16
3.565784231e-16
3.475848934e-16
3.388215031e-16
3.302822576e-16
3.219612933e-16
3.138529375e-16
3.059516537e-16
2.982520769e-16
2.907489659e-16
2.834372216e-16
2.763118664e-16
2.693680712e-16
2.626011258e-16
2.560064574e-16
2.495795907e-16
2.433161713e-16
2.372119945e-16
2.312629332e-16
2.254650124e-16
2.198143232e-16
2.143070529e-16
2.089394964e-16
2.037080612e-16
1.986092306e-16
1.936395892e-16
1.887958177e-16
1.84074692e-16
1.794730532e-16
1.749878459e-16
1.706160649e-16
1.663548281e-16
1.62201268e-16
1.58152619e-16
1.542062003e-16
1.503593919e-16
1.466096476e-16
1.429544848e-16
1.39391495e-16
1.359183046e-16
1.325326213e-16
1.292322276e-16
1.260149223e-16
1.228786048e-16
1.198212096e-16
1.168406999e-16
1.139351398e-16
1.111026055e-16
1.083412472e-16
1.056492488e-16
1.030248508e-16
1.004663338e-16
9.79720145e-17
9.554027507e-17
9.316951497e-17
9.085818667e-17
8.860479914e-17
8.640787232e-17
8.426596434e-17
8.217768924e-17
8.014168036e-17
7.815662655e-17
7.622122366e-17
7.43342212e-17
7.249440384e-17
7.070057264e-17
6.895155329e-17
6.724622423e-17
6.558347053e-17
6.396223803e-17
6.238146483e-17
6.084014255e-17
5.933726055e-17
5.787186089e-17
5.644300284e-17
5.504974695e-17
5.369120135e-17
5.236648713e-17
5.107476089e-17
4.981519836e-17
4.858699193e-17
4.738933648e-17
4.622146876e-17
4.508265276e-17
4.397214677e-17
4.288925024e-17
4.183326175e-17
4.080350867e-17
3.979932316e-17
3.882006752e-17
3.786512017e-17
3.693387911e-17
3.602574233e-17
3.514012636e-17
3.427646751e-17
3.343422266e-17
3.261285913e-17
3.181184966e-17
3.103068333e-17
3.026885918e-17
2.9525888e-17
2.88013109e-17
2.809467019e-17
2.740551991e-17
2.673342163e-17
2.607794203e-17
2.543866524e-17
2.481519061e-17
2.420713459e-17
2.361410198e-17
2.303572414e-17
2.247161945e-17
2.192144093e-17
2.138484404e-17
2.086148615e-17
2.035103877e-17
1.9853184e-17
1.936760635e-17
1.889400047e-17
1.843207157e-17
1.798152487e-17
1.754207794e-17
1.711345635e-17
1.669538439e-17
1.628760237e-17
1.588985947e-17
1.550189908e-17
1.512347917e-17
1.475436152e-17
1.439431336e-17
1.404311587e-17
1.370054039e-17
1.336637726e-17
1.304041882e-17
1.272245972e-17
1.24122971e-17
1.210973695e-17
1.181459872e-17
1.152669124e-17
1.124582503e-17
1.097183493e-17
1.070454491e-17
1.044378153e-17
1.018938445e-17
9.941196746e-18
9.699065443e-18
9.462829836e-18
9.232346926e-18
9.007472445e-18
8.788065424e-18
8.573974974e-18
8.365072284e-18
8.161219867e-18
7.962284579e-18
7.768140425e-18
7.578663268e-18
7.393735462e-18
7.213227703e-18
7.037031951e-18
6.86502379e-18
6.697093259e-18
6.533130941e-18
6.373023659e-18
6.21666155e-18
6.063942429e-18
5.914766235e-18
5.769024699e-18
5.626610645e-18
5.48742398e-18
5.351370441e-18
5.218351323e-18
5.088269888e-18
4.961030665e-18
4.836537031e-18
4.714708519e-18
4.595450909e-18
4.478679383e-18
4.364312736e-18
4.252268083e-18
4.142461106e-18
4.034831877e-18
3.929305644e-18
3.825821643e-18
2.999686867e-18
2.128064271e-18
1.514278594e-18
1.077419252e-18
7.658598939e-19
5.437324879e-19
3.855729513e-19
2.730330946e-19
1.930590867e-19
1.363278816e-19
9.616603159e-20
6.77112742e-20
4.761008823e-20
3.343807661e-20
2.345305237e-20
1.642232459e-20
1.147492331e-20
8.014893088e-21
5.590682522e-21
3.894806301e-21
2.70786332e-21
1.880694714e-21
1.296751681e-21
9.049811402e-22
6.239671977e-22
4.33324067e-22
2.999774084e-22
2.077071035e-22
1.43980709e-22
1.002711252e-22
6.940478852e-23
4.932021715e-23
3.479478908e-23
2.51350106e-23
1.939693211e-23
1.45814884e-23
1.075045713e-23
9.054032856e-24
7.79553726e-24
6.81397192e-24
6.680419548e-24
6.507020639e-24
6.31689512e-24
6.545771629e-24
6.882773841e-24
6.013067737e-24
6.001353606e-24
7.689792262e-24
5.683032255e-24
7.813517698e-24
6.952275765e-24
8.201955667e-24
7.577389713e-24
8.235415727e-24
8.802508628e-24
9.807448084e-24
1.010047242e-23
1.144779417e-23
1.167912808e-23
1.039586538e-23
1.107046837e-23
1.05459795e-23
1.211044276e-23
1.201126713e-23
1.260593405e-23
1.256771527e-23
1.322690984e-23
1.349295793e-23
1.377884662e-23
1.39588565e-23
1.415297965e-23
1.447019317e-23
1.506529624e-23
1.510626301e-23
1.56065509e-23
1.530563872e-23
1.570260661e-23
1.58898028e-23
1.608415093e-23
1.576359031e-23
1.604368129e-23
1.56433258e-23
1.601236767e-23
1.672884556e-23
1.659875899e-23
1.630786667e-23
1.635568145e-23
1.634255369e-23
1.64370536e-23
1.651669951e-23
1.667504562e-23
1.653662638e-23
1.662876643e-23
1.65949895e-23
1.664930318e-23
1.664744482e-23
1.664022845e-23
1.666535653e-23
1.666450736e-23
1.668594254e-23
1.667779247e-23
1.668277334e-23
1.669248211e-23
1.668239881e-23
1.667993089e-23
1.667206907e-23
1.66838866e-23
1.667872183e-23
1.66963801e-23
1.66675144e-23
1.668403701e-23
1.668340961e-23
1.667257832e-23
1.668251524e-23
1.666635173e-23
1.667193913e-23
1.66762174e-23
1.667382779e-23
1.667590163e-23
1.667288109e-23
1.667075971e-23
1.666923378e-23
1.667002851e-23
1.666767679e-23
1.66600903e-23
1.666591522e-23
1.666647033e-23
1.666812436e-23
1.666481332e-23
1.666378953e-23
1.666313222e-23
1.666500812e-23
1.66629441e-23
1.666594431e-23
1.667616154e-23
1.667232246e-23
1.666321339e-23
1.667062736e-23
1.668465302e-23
1.666215502e-23
1.666513205e-23
1.66614322e-23
1.666815468e-23
1.665881326e-23
1.666830098e-23
1.666014861e-23
1.664804163e-23
1.668055361e-23
1.666390346e-23
1.666423592e-23
1.666374573e-23
1.66564622e-23
1.664014602e-23
1.665010454e-23
1.665387287e-23
1.666685339e-23
1.665811377e-23
1.667332634e-23
1.66680952e-23
1.667112826e-23
1.667573649e-23
1.666229981e-23
1.667554136e-23
1.668106801e-23
1.66647479e-23
1.666084136e-23
1.664736658e-23
1.665013835e-23
1.664744732e-23
1.667637145e-23
1.665137103e-23
1.666415137e-23
1.665178647e-23
1.665564708e-23
1.665383066e-23
1.665761254e-23
1.666877672e-23
1.666808733e-23
1.66680973e-23
1.667041628e-23
1.667377865e-23
1.66714496e-23
1.66696476e-23
1.666344417e-23
1.667634429e-23
1.665608222e-23
1.666006961e-23
1.665470037e-23
1.666256142e-23
1.664821982e-23
1.66652933e-23
1.667798524e-23
1.665325153e-23
1.667104782e-23
1.666969372e-23
1.666231354e-23
1.666384256e-23
1.666567315e-23
1.666884678e-23
1.665284267e-23
1.664558966e-23
1.665883174e-23
1.666525907e-23
1.665755859e-23
1.665108649e-23
1.66558413e-23
1.665585481e-23
1.666507814e-23
1.665708504e-23
1.66551914e-23
1.665624945e-23
1.666501723e-23
1.664905214e-23
1.665243276e-23
1.665671589e-23
1.666628085e-23
1.665530579e-23
1.66616908e-23
1.665419108e-23
1.665671201e-23
1.665842558e-23
1.666044573e-23
1.665683623e-23
1.665933111e-23
1.665938437e-23
1.665560545e-23
1.665722842e-23
1.665873597e-23
1.665777082e-23
1.665724222e-23
1.665524574e-23
1.665588272e-23
1.66499963e-23
1.665658689e-23
1.664687911e-23
1.665930339e-23
1.666167058e-23
1.664890582e-23
1.664643722e-23
1.664409223e-23
1.663852344e-23
1.664162558e-23
1.663665004e-23
1.664551608e-23
1.66408685e-23
1.662779095e-23
1.662988448e-23
1.665558269e-23
1.665817472e-23
1.663778176e-23
)
;

boundaryField
{
    inlet
    {
        type            fixedValue;
        value           uniform 0;
    }
    outlet
    {
        type            zeroGradient;
    }
    wall
    {
        type            empty;
    }
}


// ************************************************************************* //
