/*--------------------------------*- C++ -*----------------------------------*\
  =========                 |
  \\      /  F ield         | OpenFOAM: The Open Source CFD Toolbox
   \\    /   O peration     | Website:  https://openfoam.org
    \\  /    A nd           | Version:  7
     \\/     M anipulation  |
\*---------------------------------------------------------------------------*/
FoamFile
{
    version     2.0;
    format      ascii;
    class       volScalarField;
    location    "0.000558243009";
    object      C2H3CO_0;
}
// * * * * * * * * * * * * * * * * * * * * * * * * * * * * * * * * * * * * * //

dimensions      [0 0 0 0 0 0 0];

internalField   nonuniform List<scalar> 
1500
(
1.59817849e-17
6.238494257e-17
1.285424752e-16
1.92524064e-16
2.398941274e-16
2.685915058e-16
2.833757309e-16
2.900098062e-16
2.926468298e-16
2.935877806e-16
2.938925328e-16
2.939829666e-16
2.940077514e-16
2.940140679e-16
2.940155735e-16
2.940159109e-16
2.940159823e-16
2.940159967e-16
2.940159994e-16
2.940159999e-16
2.94016e-16
2.94016e-16
2.94016e-16
2.94016e-16
2.94016e-16
2.94016e-16
2.94016e-16
2.94016e-16
2.94016e-16
2.94016e-16
2.94016e-16
2.94016e-16
2.94016e-16
2.94016e-16
2.94016e-16
2.94016e-16
2.94016e-16
2.94016e-16
2.94016e-16
2.94016e-16
2.94016e-16
2.94016e-16
2.94016e-16
2.94016e-16
2.94016e-16
2.94016e-16
2.94016e-16
2.94016e-16
2.94016e-16
2.94016e-16
2.94016e-16
2.94016e-16
2.94016e-16
2.94016e-16
2.94016e-16
2.94016e-16
2.94016e-16
2.94016e-16
2.94016e-16
2.94016e-16
2.94016e-16
2.94016e-16
2.94016e-16
2.94016e-16
2.94016e-16
2.94016e-16
2.94016e-16
2.94016e-16
2.94016e-16
2.94016e-16
2.94016e-16
2.94016e-16
2.94016e-16
2.94016e-16
2.94016e-16
2.94016e-16
2.94016e-16
2.94016e-16
2.94016e-16
2.94016e-16
2.94016e-16
2.94016e-16
2.94016e-16
2.94016e-16
2.94016e-16
2.94016e-16
2.94016e-16
2.94016e-16
2.94016e-16
2.94016e-16
2.94016e-16
2.94016e-16
2.94016e-16
2.94016e-16
2.94016e-16
2.94016e-16
2.94016e-16
2.94016e-16
2.94016e-16
2.94016e-16
2.94016e-16
2.94016e-16
2.94016e-16
2.94016e-16
2.94016e-16
2.94016e-16
2.94016e-16
2.94016e-16
2.94016e-16
2.94016e-16
2.94016e-16
2.94016e-16
2.94016e-16
2.94016e-16
2.94016e-16
2.94016e-16
2.94016e-16
2.94016e-16
2.94016e-16
2.94016e-16
2.94016e-16
2.94016e-16
2.94016e-16
2.94016e-16
2.94016e-16
2.94016e-16
2.94016e-16
2.94016e-16
2.94016e-16
2.94016e-16
2.94016e-16
2.94016e-16
2.94016e-16
2.94016e-16
2.94016e-16
2.94016e-16
2.94016e-16
2.94016e-16
2.94016e-16
2.94016e-16
2.94016e-16
2.94016e-16
2.94016e-16
2.94016e-16
2.94016e-16
2.94016e-16
2.94016e-16
2.94016e-16
2.94016e-16
2.94016e-16
2.94016e-16
2.94016e-16
2.94016e-16
2.94016e-16
2.94016e-16
2.94016e-16
2.94016e-16
2.94016e-16
2.94016e-16
2.94016e-16
2.94016e-16
2.94016e-16
2.94016e-16
2.94016e-16
2.94016e-16
2.94016e-16
2.94016e-16
2.94016e-16
2.94016e-16
2.94016e-16
2.94016e-16
2.94016e-16
2.94016e-16
2.94016e-16
2.94016e-16
2.94016e-16
2.94016e-16
2.94016e-16
2.94016e-16
2.94016e-16
2.94016e-16
2.94016e-16
2.94016e-16
2.94016e-16
2.94016e-16
2.94016e-16
2.94016e-16
2.94016e-16
2.94016e-16
2.94016e-16
2.94016e-16
2.94016e-16
2.94016e-16
2.94016e-16
2.94016e-16
2.94016e-16
2.94016e-16
2.94016e-16
2.94016e-16
2.94016e-16
2.94016e-16
2.94016e-16
2.94016e-16
2.94016e-16
2.94016e-16
2.94016e-16
2.94016e-16
2.94016e-16
2.94016e-16
2.94016e-16
2.94016e-16
2.94016e-16
2.94016e-16
2.94016e-16
2.94016e-16
2.94016e-16
2.94016e-16
2.94016e-16
2.94016e-16
2.94016e-16
2.94016e-16
2.94016e-16
2.94016e-16
2.94016e-16
2.94016e-16
2.94016e-16
2.94016e-16
2.94016e-16
2.94016e-16
2.94016e-16
2.94016e-16
2.94016e-16
2.94016e-16
2.94016e-16
2.94016e-16
2.94016e-16
2.940160001e-16
2.940160003e-16
2.940160014e-16
2.940160054e-16
2.940160205e-16
2.940160738e-16
2.940162493e-16
2.94016787e-16
2.940183119e-16
2.940222855e-16
2.940316971e-16
2.940515822e-16
2.940876399e-16
2.941381718e-16
2.941545784e-16
2.9415966e-16
2.941649417e-16
2.941704326e-16
2.941761398e-16
2.941820708e-16
2.941882344e-16
2.941946402e-16
2.942012985e-16
2.942082203e-16
2.942154171e-16
2.942229009e-16
2.942306844e-16
2.942387806e-16
2.942472034e-16
2.942559674e-16
2.942650878e-16
2.942745807e-16
2.94284463e-16
2.942947523e-16
2.943054675e-16
2.94316628e-16
2.943282547e-16
2.943403694e-16
2.943529949e-16
2.943661555e-16
2.943798767e-16
2.943941854e-16
2.944091101e-16
2.944246805e-16
2.944409285e-16
2.944578873e-16
2.944755922e-16
2.944940804e-16
2.945133913e-16
2.945335665e-16
2.945546499e-16
2.945766882e-16
2.945997304e-16
2.946238286e-16
2.946490378e-16
2.946754165e-16
2.947030261e-16
2.947319322e-16
2.947622037e-16
2.947939141e-16
2.948271407e-16
2.948619659e-16
2.948984767e-16
2.949367653e-16
2.949769293e-16
2.950190724e-16
2.950633042e-16
2.95109741e-16
2.951585059e-16
2.952097294e-16
2.952635498e-16
2.953201136e-16
2.95379576e-16
2.954421015e-16
2.955078642e-16
2.955770487e-16
2.956498503e-16
2.95726476e-16
2.958071448e-16
2.958920887e-16
2.959815532e-16
2.960757981e-16
2.961750983e-16
2.962797446e-16
2.963900447e-16
2.965063236e-16
2.966289253e-16
2.967582132e-16
2.968945713e-16
2.970384051e-16
2.97190143e-16
2.973502374e-16
2.975191654e-16
2.976974306e-16
2.978855644e-16
2.980841267e-16
2.982937081e-16
2.985149305e-16
2.987484493e-16
2.989949544e-16
2.992551722e-16
2.995298667e-16
2.998198416e-16
3.00125942e-16
3.004490557e-16
3.007901156e-16
3.011501013e-16
3.015300408e-16
3.019310128e-16
3.023541485e-16
3.028006337e-16
3.032717108e-16
3.037686811e-16
3.042929066e-16
3.048458125e-16
3.054288895e-16
3.060436956e-16
3.066918587e-16
3.073750791e-16
3.080951313e-16
3.088538667e-16
3.096532159e-16
3.10495191e-16
3.11381888e-16
3.123154891e-16
3.132982652e-16
3.143325781e-16
3.154208828e-16
3.1656573e-16
3.177697684e-16
3.190357467e-16
3.203665158e-16
3.217650313e-16
3.232343555e-16
3.247776591e-16
3.263982236e-16
3.28099443e-16
3.298848258e-16
3.317579964e-16
3.337226971e-16
3.357827895e-16
3.379422556e-16
3.402051998e-16
3.425758494e-16
3.450585559e-16
3.476577959e-16
3.503781717e-16
3.53224412e-16
3.562013722e-16
3.593140348e-16
3.625675092e-16
3.659670315e-16
3.695179644e-16
3.732257966e-16
3.770961417e-16
3.811347377e-16
3.853474453e-16
3.897402469e-16
3.943192445e-16
3.99090658e-16
4.040608231e-16
4.092361889e-16
4.146233149e-16
4.202288686e-16
4.26059622e-16
4.321224483e-16
4.384243183e-16
4.449722965e-16
4.517735366e-16
4.588352779e-16
4.661648397e-16
4.737696171e-16
4.816570759e-16
4.898347466e-16
4.983102197e-16
5.070911393e-16
5.161851978e-16
5.256001289e-16
5.353437021e-16
5.454237157e-16
5.558479905e-16
5.666243627e-16
5.777606774e-16
5.892647812e-16
6.011445155e-16
6.134077093e-16
6.260621716e-16
6.391156849e-16
6.525759974e-16
6.664508161e-16
6.807477996e-16
6.954745513e-16
7.106386118e-16
7.262474529e-16
7.423084702e-16
7.58828977e-16
7.758161981e-16
7.932772635e-16
8.112192027e-16
8.296489396e-16
8.485732868e-16
8.679989416e-16
8.87932481e-16
9.083803584e-16
9.293489001e-16
9.508443021e-16
9.728726284e-16
9.954398086e-16
1.018551638e-15
1.042213775e-15
1.066431744e-15
1.091210936e-15
1.116556609e-15
1.14247389e-15
1.168967782e-15
1.196043166e-15
1.223704807e-15
1.25195736e-15
1.280805377e-15
1.310253317e-15
1.340305555e-15
1.37096639e-15
1.402240063e-15
1.434130763e-15
1.466642646e-15
1.499779849e-15
1.533546509e-15
1.567946776e-15
1.60298484e-15
1.638664947e-15
1.674991422e-15
1.711968697e-15
1.749601332e-15
1.787894045e-15
1.826851741e-15
1.866479541e-15
1.906782817e-15
1.947767221e-15
1.989438728e-15
2.031803665e-15
2.07486876e-15
2.118641173e-15
2.163128548e-15
2.208339052e-15
2.254281426e-15
2.300965031e-15
2.348399899e-15
2.396596788e-15
2.445567238e-15
2.495323623e-15
2.545879215e-15
2.597248245e-15
2.649445964e-15
2.702488711e-15
2.756393981e-15
2.811180495e-15
2.866868272e-15
2.923478706e-15
2.981034642e-15
3.039560455e-15
3.099082137e-15
3.159627375e-15
3.221225644e-15
3.283908296e-15
3.34770865e-15
3.412662091e-15
3.478806166e-15
3.546180686e-15
3.61482783e-15
3.684792252e-15
3.756121188e-15
3.828864576e-15
3.903075165e-15
3.978808639e-15
4.056123739e-15
4.135082395e-15
4.215749862e-15
4.298194821e-15
4.38248959e-15
4.468710215e-15
4.556936595e-15
4.647252671e-15
4.739746572e-15
4.834510782e-15
4.931642308e-15
5.03124285e-15
5.133418975e-15
5.2382823e-15
5.345949666e-15
5.456543337e-15
5.570191186e-15
5.687026912e-15
5.807190203e-15
5.930827015e-15
6.058089772e-15
6.189137621e-15
6.324136651e-15
6.463260193e-15
6.606689092e-15
6.754611932e-15
6.907225331e-15
7.064734258e-15
7.227352358e-15
7.395302278e-15
7.568816023e-15
7.748135323e-15
7.933512024e-15
8.125208498e-15
8.32349809e-15
8.528665581e-15
8.741007691e-15
8.960833621e-15
9.188465632e-15
9.424239677e-15
9.668506087e-15
9.921630323e-15
1.01839938e-14
1.045599481e-14
1.073804952e-14
1.103059312e-14
1.133408112e-14
1.164899077e-14
1.19758227e-14
1.231510283e-14
1.266738452e-14
1.303325106e-14
1.341331858e-14
1.380823941e-14
1.421870606e-14
1.464545585e-14
1.508927637e-14
1.555101196e-14
1.603157139e-14
1.653193694e-14
1.705317527e-14
1.759645035e-14
1.816303895e-14
1.875434912e-14
1.937194245e-14
2.001756064e-14
2.069315753e-14
2.140093758e-14
2.21434021e-14
2.292340504e-14
2.374422005e-14
2.460962141e-14
2.552398159e-14
2.649238885e-14
2.752078921e-14
2.861615774e-14
2.978670533e-14
3.104212833e-14
3.239390996e-14
3.385568434e-14
3.544367613e-14
3.717723153e-14
3.907945979e-14
4.117800806e-14
4.350599758e-14
4.610315457e-14
4.901717664e-14
5.230538356e-14
5.603671167e-14
6.029412355e-14
6.51775192e-14
7.080725338e-14
7.732838494e-14
8.491581069e-14
9.378046761e-14
1.041768257e-13
1.164119398e-13
1.308563841e-13
1.479574617e-13
1.682551598e-13
1.924014232e-13
2.211834336e-13
2.555517264e-13
2.966541492e-13
3.458768735e-13
4.04893922e-13
4.757269762e-13
5.608175952e-13
6.631144129e-13
7.861784164e-13
9.343100424e-13
1.112702603e-12
1.327627475e-12
1.586657613e-12
1.898937285e-12
2.275507544e-12
2.729698916e-12
3.277605106e-12
3.938654358e-12
4.736298462e-12
5.698843493e-12
6.860451214e-12
8.262345897e-12
9.954268353e-12
1.199622725e-11
1.446060784e-11
1.743471007e-11
2.102380232e-11
2.535479374e-11
3.058064835e-11
3.688568757e-11
4.449195614e-11
5.366685887e-11
6.473231505e-11
7.807572183e-11
9.416307128e-11
1.135546263e-10
1.369236309e-10
1.650786117e-10
1.989899161e-10
2.398212378e-10
2.889669928e-10
3.480965307e-10
4.192063053e-10
5.046812607e-10
6.073668402e-10
7.30653155e-10
8.785729847e-10
1.055915376e-09
1.268356677e-09
1.522610838e-09
1.826600759e-09
2.189652237e-09
2.622711807e-09
3.138589227e-09
3.752224718e-09
4.480980146e-09
5.344952214e-09
6.367304364e-09
7.574612541e-09
8.997218263e-09
1.06695807e-08
1.263061785e-08
1.492402536e-08
1.759856089e-08
2.070828115e-08
2.431271949e-08
2.847699314e-08
3.327183111e-08
3.877351662e-08
4.506374129e-08
5.222937101e-08
6.036212624e-08
6.955817996e-08
7.991767358e-08
9.154414213e-08
1.045438201e-07
1.190247624e-07
1.350956527e-07
1.528640765e-07
1.724338752e-07
1.939010147e-07
2.173471028e-07
2.428293775e-07
2.703656408e-07
2.999123777e-07
3.313343946e-07
3.643484324e-07
3.985449109e-07
4.33147574e-07
4.674059557e-07
4.999885082e-07
5.293104146e-07
5.529212376e-07
5.696033691e-07
5.779546493e-07
5.770155247e-07
5.662345296e-07
5.453384775e-07
5.148194655e-07
4.760960286e-07
4.324373609e-07
3.887920319e-07
3.500742428e-07
3.191449459e-07
2.976885433e-07
2.843570355e-07
2.773226061e-07
2.745725357e-07
2.742114093e-07
2.747106344e-07
2.751222434e-07
2.756999096e-07
2.753942717e-07
2.732692513e-07
2.685675525e-07
2.607821439e-07
2.496848401e-07
2.354082096e-07
2.183824283e-07
1.994733361e-07
1.793905382e-07
1.591899508e-07
1.394920841e-07
1.208603519e-07
1.036813655e-07
8.817935165e-08
7.435484255e-08
6.216775418e-08
5.166385112e-08
4.2715501e-08
3.516821353e-08
2.885900421e-08
2.361982716e-08
1.929521672e-08
1.574083419e-08
1.282740411e-08
1.047484204e-08
8.552226303e-09
6.972240711e-09
5.687741128e-09
4.643408278e-09
3.794098307e-09
3.103123491e-09
2.540702695e-09
2.082848544e-09
1.709584869e-09
1.405161615e-09
1.156648244e-09
9.535588499e-10
7.873930676e-10
6.512616057e-10
5.395810089e-10
4.478252803e-10
3.723241586e-10
3.10099586e-10
2.587333311e-10
2.162599824e-10
1.810805073e-10
1.51892465e-10
1.276336774e-10
1.074367624e-10
9.059242431e-11
7.651980136e-11
6.474249781e-11
5.486919593e-11
4.657795801e-11
3.960350322e-11
3.372688392e-11
2.876709898e-11
2.4574272e-11
2.102409505e-11
1.801329705e-11
1.545594255e-11
1.328040437e-11
1.142688377e-11
9.845376045e-12
8.493999096e-12
7.337617956e-12
6.346711244e-12
5.496435476e-12
4.765851514e-12
4.137284056e-12
3.595790451e-12
3.128719508e-12
2.725344463e-12
2.376557189e-12
2.074613019e-12
1.8129175e-12
1.585847902e-12
1.388603605e-12
1.217080504e-12
1.06776542e-12
9.376472032e-13
8.241417838e-13
7.250288933e-13
6.383985626e-13
5.626058279e-13
4.962323306e-13
4.380537215e-13
3.870119535e-13
3.421917013e-13
3.028002668e-13
2.681504344e-13
2.376458255e-13
2.107683719e-13
1.8706759e-13
1.66151386e-13
1.476781641e-13
1.313500465e-13
1.169070409e-13
1.04122019e-13
9.279638792e-14
8.275635479e-14
7.384970109e-14
6.594299307e-14
5.891916778e-14
5.267544187e-14
4.712149819e-14
4.217791205e-14
3.7774784e-14
3.385055109e-14
3.035095239e-14
2.722812797e-14
2.443983336e-14
2.194875429e-14
1.97219083e-14
1.773012176e-14
1.594757255e-14
1.435138976e-14
1.292130305e-14
1.163933523e-14
1.048953267e-14
9.457728552e-15
8.531334891e-15
7.699159713e-15
6.951246189e-15
6.278731018e-15
5.673719669e-15
5.129176383e-15
4.638827153e-15
4.197074072e-15
3.798919669e-15
3.439900047e-15
3.11602573e-15
2.823729324e-15
2.55981917e-15
2.321438267e-15
2.106027865e-15
1.911295158e-15
1.73518461e-15
1.575852487e-15
1.431644226e-15
1.301074308e-15
1.182808354e-15
1.075647184e-15
9.785126241e-16
8.904348538e-16
8.105411248e-16
7.380456985e-16
6.722408635e-16
6.124889142e-16
5.582149825e-16
5.089006311e-16
4.640781225e-16
4.2332529e-16
3.862609473e-16
3.525407747e-16
3.21853635e-16
2.93918268e-16
2.684803265e-16
2.453097171e-16
2.241982112e-16
2.049573003e-16
1.87416268e-16
1.714204581e-16
1.568297149e-16
1.435169807e-16
1.313670343e-16
1.202753537e-16
1.101470922e-16
1.008961553e-16
9.244436842e-17
8.472072664e-17
7.766071702e-17
7.120570792e-17
6.530239647e-17
5.990231038e-17
5.496135708e-17
5.043941685e-17
4.629997438e-17
4.250978529e-17
3.903857534e-17
3.585876717e-17
3.294523329e-17
3.027507258e-17
2.782740713e-17
2.558319908e-17
2.352508332e-17
2.163721681e-17
1.990514158e-17
1.831566009e-17
1.685672259e-17
1.551732464e-17
1.428741366e-17
1.315780458e-17
1.212010305e-17
1.116663561e-17
1.029038598e-17
9.484937303e-18
8.744419632e-18
8.063462198e-18
7.437149734e-18
6.860982844e-18
6.33084206e-18
5.842954819e-18
5.393865514e-18
4.980408148e-18
4.599681514e-18
4.249026613e-18
3.926005625e-18
3.62838331e-18
3.354109634e-18
3.101304218e-18
2.868241694e-18
2.653338672e-18
2.45514193e-18
2.272317338e-18
2.103639953e-18
1.947984763e-18
1.804318432e-18
1.671691524e-18
1.549231662e-18
1.436137095e-18
1.331670763e-18
1.235155053e-18
1.145966852e-18
1.063533102e-18
9.873265593e-19
9.168622557e-19
8.516938902e-19
7.914106364e-19
7.356343906e-19
6.840170242e-19
6.362379352e-19
5.920019107e-19
5.510369818e-19
5.130925754e-19
4.779378497e-19
4.453599907e-19
4.151629412e-19
3.871658561e-19
3.612020807e-19
3.371178572e-19
3.147714061e-19
2.940319292e-19
2.747787391e-19
2.569004676e-19
2.402943427e-19
2.248654703e-19
2.10526297e-19
1.971959117e-19
1.84799643e-19
1.732685103e-19
1.625387811e-19
1.525515705e-19
1.432524491e-19
1.34591121e-19
1.265210928e-19
1.189993763e-19
1.119862282e-19
1.054448945e-19
9.934138092e-20
9.364424064e-20
8.832435842e-20
8.335477857e-20
7.871055057e-20
7.43685828e-20
7.030754424e-20
6.650762692e-20
6.295048128e-20
5.96191133e-20
5.649780453e-20
5.357195903e-20
5.082801712e-20
4.825344258e-20
4.58366352e-20
4.356680234e-20
4.143395751e-20
3.942880917e-20
3.754275414e-20
3.576779304e-20
3.409649134e-20
3.252194755e-20
3.103779714e-20
2.96380527e-20
2.831719815e-20
2.707009739e-20
2.589198262e-20
2.477841464e-20
2.37252415e-20
2.272863594e-20
2.178502022e-20
2.089106424e-20
2.004367675e-20
1.923994918e-20
1.847720048e-20
1.775293657e-20
1.706481907e-20
1.641066711e-20
1.578844901e-20
1.51962636e-20
1.463233819e-20
1.409503869e-20
1.358281126e-20
1.309422158e-20
1.262790978e-20
1.218262408e-20
1.175718871e-20
1.135049642e-20
1.096152507e-20
1.058931642e-20
1.023294072e-20
9.891573501e-21
9.56441633e-21
9.250723764e-21
8.949795387e-21
8.660977985e-21
8.38364764e-21
8.117239995e-21
7.861205866e-21
7.61504764e-21
7.378269083e-21
7.150424254e-21
6.931072564e-21
6.719821567e-21
6.516290721e-21
6.320130653e-21
6.131015453e-21
5.948612032e-21
5.772628932e-21
5.602768506e-21
5.438769334e-21
5.280391937e-21
5.127390906e-21
4.979533764e-21
4.836609529e-21
4.698405716e-21
4.564740863e-21
4.435427432e-21
4.310287789e-21
4.18915965e-21
4.071889931e-21
3.958321852e-21
3.848320539e-21
3.741745542e-21
3.638461139e-21
3.538354637e-21
3.441307054e-21
3.347217248e-21
3.255970174e-21
3.167465247e-21
3.081599777e-21
2.998282388e-21
2.917420448e-21
2.838938927e-21
2.76275602e-21
2.68879486e-21
2.616974371e-21
2.547227312e-21
2.479485216e-21
2.413685934e-21
2.349759192e-21
2.287638433e-21
2.227272928e-21
2.168601276e-21
2.111584318e-21
2.056164751e-21
2.002286697e-21
1.949899937e-21
1.898960829e-21
1.849421259e-21
1.801236688e-21
1.754369738e-21
1.708785777e-21
1.664445988e-21
1.621316728e-21
1.579357145e-21
1.53854272e-21
1.498831821e-21
1.460186285e-21
1.422579241e-21
1.385979935e-21
1.350358118e-21
1.315688256e-21
1.281945245e-21
1.249096515e-21
1.217116528e-21
1.185990128e-21
1.15568517e-21
1.126182224e-21
1.097460473e-21
1.069487993e-21
1.042252744e-21
1.015730585e-21
9.899058621e-22
9.647538828e-22
9.40260956e-22
9.16407262e-22
8.931710365e-22
8.705409118e-22
8.484974533e-22
8.270242233e-22
8.061115486e-22
7.857418867e-22
7.658976606e-22
7.465677703e-22
7.277352987e-22
7.093915591e-22
6.915178813e-22
6.741022648e-22
6.571384846e-22
6.406127718e-22
6.245081916e-22
6.088188534e-22
5.935302309e-22
5.786381438e-22
5.641264074e-22
5.499902148e-22
5.362125263e-22
5.227891964e-22
5.097112678e-22
4.969645935e-22
4.845425284e-22
4.724332413e-22
4.606312616e-22
4.4913132e-22
4.379285502e-22
4.270066037e-22
4.163610994e-22
4.059904587e-22
3.958811785e-22
3.860292741e-22
3.76424668e-22
3.67063067e-22
3.579340916e-22
3.490342728e-22
3.40358999e-22
3.319054979e-22
3.236641535e-22
3.156286206e-22
3.077937295e-22
3.001567705e-22
2.927141305e-22
2.854588095e-22
2.783851508e-22
2.714877545e-22
2.647582466e-22
2.581971898e-22
2.518005174e-22
2.455661622e-22
2.39489093e-22
2.335641353e-22
2.27785236e-22
2.221513684e-22
2.166623186e-22
2.113107413e-22
2.060960122e-22
2.010079162e-22
1.960464972e-22
1.912102588e-22
1.86493633e-22
1.818953248e-22
1.774126492e-22
1.730409705e-22
1.687785869e-22
1.646238431e-22
1.605717223e-22
1.566199916e-22
1.527683965e-22
1.490114745e-22
1.453477177e-22
1.417760482e-22
1.382933285e-22
1.348973089e-22
1.315844471e-22
1.283531681e-22
1.25203438e-22
1.221298712e-22
1.191337832e-22
1.1621228e-22
1.133635174e-22
1.105845809e-22
1.078734231e-22
1.052327394e-22
1.026566322e-22
1.001411138e-22
9.768815003e-23
9.529499818e-23
9.295800208e-23
9.067797518e-23
8.845511549e-23
8.62882038e-23
8.417314818e-23
8.21107491e-23
8.009995285e-23
7.814186831e-23
7.622961671e-23
7.436527245e-23
7.254570054e-23
7.077011854e-23
6.903710585e-23
6.734470464e-23
6.569427388e-23
6.408221763e-23
6.251030813e-23
6.097469285e-23
5.947518013e-23
5.801220956e-23
5.658412806e-23
5.518858875e-23
5.382700894e-23
5.249926964e-23
5.120346656e-23
4.993704826e-23
4.869806963e-23
4.748789962e-23
4.63042874e-23
4.514643219e-23
4.401414781e-23
4.290556771e-23
4.182325828e-23
4.076404022e-23
3.972775574e-23
3.871379525e-23
3.77205727e-23
3.674442631e-23
3.578845827e-23
3.484973653e-23
3.392984243e-23
2.65748919e-23
1.88629649e-23
1.34062103e-23
9.553395281e-24
6.781066024e-24
4.831971717e-24
3.433594007e-24
2.422103072e-24
1.704241064e-24
1.201798697e-24
8.522164152e-25
6.034364805e-25
4.276397957e-25
3.024210735e-25
2.144769893e-25
1.56490603e-25
1.046699642e-25
7.361309307e-26
5.337863558e-26
3.69017246e-26
3.112091925e-26
2.036505004e-26
1.096219903e-26
9.130563505e-27
5.587934607e-27
4.948928351e-27
3.140230619e-27
2.653219619e-27
1.722794837e-27
1.238744071e-27
6.299732972e-28
6.896984274e-28
4.350177029e-28
2.474516102e-28
5.365107207e-28
4.725944174e-28
2.57206452e-28
1.577492179e-28
1.043512095e-28
5.994368392e-29
2.326039002e-28
2.306875196e-28
7.248001524e-28
1.291056181e-27
1.258370329e-27
6.250450083e-28
1.284734805e-28
7.822767298e-28
1.400016574e-28
4.968531207e-28
4.170241087e-28
6.752945839e-28
6.56060729e-29
8.207010818e-29
7.600605852e-28
1.760552417e-27
1.400425604e-27
7.299276288e-28
7.814386799e-28
2.03545133e-28
5.780798093e-28
5.601001248e-29
2.551913557e-28
3.245041338e-28
2.166354504e-28
1.28596722e-28
1.955553794e-28
1.99800686e-28
1.81384246e-28
2.061424507e-28
1.548948123e-28
2.239601559e-28
3.3233914e-28
4.284744568e-28
7.74450869e-28
4.043985001e-28
2.6750407e-28
4.29429212e-28
3.022609727e-28
3.856118331e-28
2.091025485e-28
1.408217473e-28
1.671934871e-28
5.152800517e-28
3.052804178e-28
1.976638805e-28
1.851427489e-28
1.902093579e-28
2.001693313e-28
2.236951971e-28
2.461884578e-28
2.206182901e-28
2.155732924e-28
2.08848003e-28
2.082147597e-28
2.049967426e-28
2.054399258e-28
2.194855371e-28
2.069978846e-28
2.08739611e-28
2.061532759e-28
2.08098702e-28
2.130114148e-28
2.082770897e-28
2.073520524e-28
2.071745164e-28
2.128614307e-28
2.16831762e-28
2.102552403e-28
2.036963023e-28
2.077383372e-28
2.077755555e-28
2.063887909e-28
2.077718427e-28
2.094520967e-28
2.097718164e-28
2.12282976e-28
2.094696772e-28
2.113716822e-28
2.124125234e-28
2.069561956e-28
2.120483971e-28
2.109283771e-28
2.060813116e-28
2.09479618e-28
2.053898544e-28
2.099864653e-28
2.067051717e-28
2.131567564e-28
2.090808881e-28
2.063061757e-28
2.080028831e-28
2.054209777e-28
2.05947927e-28
2.202488004e-28
2.158165789e-28
2.158700338e-28
2.156744093e-28
2.227144185e-28
2.084814943e-28
2.088429468e-28
2.060239163e-28
2.153971812e-28
2.052031604e-28
2.094380474e-28
2.128235542e-28
2.084379495e-28
2.110955005e-28
2.070049068e-28
2.073444693e-28
2.105149282e-28
2.112628902e-28
2.158885037e-28
2.164270104e-28
2.123289348e-28
2.184057671e-28
2.09808621e-28
2.225756321e-28
2.116310119e-28
2.131264828e-28
2.171378312e-28
2.066368579e-28
2.089488314e-28
2.094610733e-28
2.119330919e-28
2.099056832e-28
2.040193639e-28
2.06363495e-28
2.080854698e-28
2.142891826e-28
2.074946442e-28
2.104618242e-28
2.04960564e-28
2.083319681e-28
2.067238704e-28
2.119611308e-28
2.136235713e-28
2.159585258e-28
2.088901849e-28
2.106916439e-28
2.105526571e-28
2.142802395e-28
2.105723081e-28
2.08432786e-28
2.094315278e-28
2.076702067e-28
2.065989112e-28
2.129464082e-28
2.115909603e-28
2.05446884e-28
2.070587029e-28
2.115073642e-28
2.056804568e-28
2.102063786e-28
2.084962267e-28
2.09172292e-28
2.173970463e-28
2.135807784e-28
2.158865236e-28
2.089858487e-28
2.042864217e-28
2.096094395e-28
2.123093794e-28
2.098745327e-28
2.080962323e-28
2.120931482e-28
2.124995677e-28
2.081751253e-28
2.071987565e-28
2.135114535e-28
2.069175572e-28
2.092368236e-28
2.047946629e-28
2.069930316e-28
2.091983627e-28
2.076359902e-28
2.0683472e-28
2.129557715e-28
2.087924873e-28
2.06544474e-28
2.08300936e-28
2.116473886e-28
2.088458328e-28
2.106298071e-28
2.116862657e-28
2.059962735e-28
2.058757065e-28
2.111651502e-28
2.079146638e-28
2.075625115e-28
2.097035494e-28
2.114480956e-28
2.053444165e-28
2.078131453e-28
2.049670777e-28
2.097048475e-28
2.161642162e-28
2.091806515e-28
2.085255819e-28
2.039125573e-28
2.072329608e-28
2.042543484e-28
2.024643224e-28
2.112395586e-28
2.039353431e-28
2.01135932e-28
2.054266158e-28
2.179749806e-28
2.080557582e-28
2.035443315e-28
)
;

boundaryField
{
    inlet
    {
        type            fixedValue;
        value           uniform 0;
    }
    outlet
    {
        type            zeroGradient;
    }
    wall
    {
        type            empty;
    }
}


// ************************************************************************* //
