/*--------------------------------*- C++ -*----------------------------------*\
  =========                 |
  \\      /  F ield         | OpenFOAM: The Open Source CFD Toolbox
   \\    /   O peration     | Website:  https://openfoam.org
    \\  /    A nd           | Version:  7
     \\/     M anipulation  |
\*---------------------------------------------------------------------------*/
FoamFile
{
    version     2.0;
    format      ascii;
    class       volScalarField;
    location    "0.000558243009";
    object      C2H3O1-2;
}
// * * * * * * * * * * * * * * * * * * * * * * * * * * * * * * * * * * * * * //

dimensions      [0 0 0 0 0 0 0];

internalField   nonuniform List<scalar> 
1500
(
2.250077813e-45
7.666762926e-45
1.302148815e-44
1.614748434e-44
1.743907684e-44
1.786073417e-44
1.797476673e-44
1.799919123e-44
1.800130247e-44
1.799850462e-44
1.79944422e-44
1.798968272e-44
1.79844748e-44
1.797918699e-44
1.797421895e-44
1.796986127e-44
1.796624247e-44
1.796335196e-44
1.796109766e-44
1.795936341e-44
1.795804756e-44
1.795707841e-44
1.795641174e-44
1.795601863e-44
1.795587208e-44
1.795593749e-44
1.795616938e-44
1.795651355e-44
1.795691263e-44
1.79573125e-44
1.795766757e-44
1.795794395e-44
1.795812017e-44
1.795818612e-44
1.795814084e-44
1.795799016e-44
1.795774447e-44
1.795741707e-44
1.795702295e-44
1.795657805e-44
1.795609866e-44
1.795560093e-44
1.795510022e-44
1.795461039e-44
1.795414312e-44
1.795370738e-44
1.795330914e-44
1.795295132e-44
1.795263409e-44
1.79523554e-44
1.795211159e-44
1.795189816e-44
1.795171038e-44
1.795154389e-44
1.79513951e-44
1.795126149e-44
1.795114168e-44
1.79510355e-44
1.79509438e-44
1.795086837e-44
1.795081168e-44
1.795077669e-44
1.795076663e-44
1.795078478e-44
1.795083427e-44
1.795091783e-44
1.795103766e-44
1.795119515e-44
1.795139083e-44
1.795162415e-44
1.795189346e-44
1.795219593e-44
1.795252758e-44
1.795288334e-44
1.795325718e-44
1.795364225e-44
1.795403111e-44
1.795441592e-44
1.795478867e-44
1.795514143e-44
1.795546661e-44
1.79557571e-44
1.795600652e-44
1.795620935e-44
1.795636108e-44
1.79564583e-44
1.795649875e-44
1.795648136e-44
1.795640626e-44
1.795627472e-44
1.795608914e-44
1.795585296e-44
1.795557058e-44
1.795524726e-44
1.795488897e-44
1.795450224e-44
1.795409403e-44
1.795367152e-44
1.795324194e-44
1.795281235e-44
1.795238949e-44
1.795197958e-44
1.795158815e-44
1.795121987e-44
1.795087849e-44
1.795056671e-44
1.795028615e-44
1.795003736e-44
1.794981989e-44
1.794963238e-44
1.794947266e-44
1.794933798e-44
1.794922515e-44
1.794913075e-44
1.794905133e-44
1.794898361e-44
1.794892461e-44
1.79488718e-44
1.794882317e-44
1.79487773e-44
1.794873335e-44
1.794869102e-44
1.794865053e-44
1.794861248e-44
1.794857774e-44
1.794854739e-44
1.794852258e-44
1.794850443e-44
1.794849398e-44
1.79484921e-44
1.794849949e-44
1.794851667e-44
1.794854401e-44
1.794858174e-44
1.794863004e-44
1.794868904e-44
1.794875893e-44
1.794883999e-44
1.794893261e-44
1.79490373e-44
1.794915471e-44
1.79492856e-44
1.794943081e-44
1.794959117e-44
1.794976748e-44
1.794996039e-44
1.795017036e-44
1.795039759e-44
1.795064194e-44
1.795090288e-44
1.795117949e-44
1.795147046e-44
1.795177405e-44
1.795208817e-44
1.795241038e-44
1.7952738e-44
1.795306816e-44
1.795339786e-44
1.795372406e-44
1.795404372e-44
1.79543539e-44
1.795465181e-44
1.795493478e-44
1.795520034e-44
1.79554462e-44
1.795567027e-44
1.795587059e-44
1.795604538e-44
1.795619296e-44
1.795631177e-44
1.795640037e-44
1.795645742e-44
1.795648174e-44
1.795647229e-44
1.795642827e-44
1.795634913e-44
1.795623467e-44
1.79560851e-44
1.795590112e-44
1.795568398e-44
1.795543562e-44
1.795515864e-44
1.795485648e-44
1.795453337e-44
1.795419444e-44
1.795384562e-44
1.795349367e-44
1.795314601e-44
1.795281058e-44
1.795249556e-44
1.795220913e-44
1.795195906e-44
1.795175241e-44
1.795159516e-44
1.79514919e-44
1.795144566e-44
1.795145782e-44
1.795152815e-44
1.79516551e-44
1.795183607e-44
1.795206788e-44
1.795234721e-44
1.795267094e-44
1.795303638e-44
1.795344126e-44
1.79538834e-44
1.795436014e-44
1.795486753e-44
1.795539931e-44
1.795594605e-44
1.795649442e-44
1.795702698e-44
1.795752266e-44
1.795795799e-44
1.795830932e-44
1.795855588e-44
1.795868339e-44
1.795868811e-44
1.795858051e-44
1.795838828e-44
1.795815784e-44
1.795795383e-44
1.795785614e-44
1.795795422e-44
1.795833878e-44
1.795909123e-44
1.796027181e-44
1.796190743e-44
1.796398079e-44
1.796642242e-44
1.796910716e-44
1.797185672e-44
1.79744492e-44
1.797663612e-44
1.797816656e-44
1.797881723e-44
1.797842615e-44
1.797692695e-44
1.797438004e-44
1.79709965e-44
1.796715078e-44
1.796337904e-44
1.796036165e-44
1.795889082e-44
1.795982745e-44
1.796405041e-44
1.797238951e-44
1.798547293e-44
1.800325575e-44
1.80234417e-44
1.802997051e-44
1.803184841e-44
1.803375568e-44
1.803569391e-44
1.803766349e-44
1.803966464e-44
1.804169768e-44
1.80437631e-44
1.804586149e-44
1.804799352e-44
1.80501599e-44
1.805236137e-44
1.805459866e-44
1.805687255e-44
1.805918384e-44
1.806153336e-44
1.8063922e-44
1.806635068e-44
1.806882037e-44
1.80713321e-44
1.807388697e-44
1.807648612e-44
1.807913079e-44
1.808182228e-44
1.808456196e-44
1.80873513e-44
1.809019185e-44
1.809308528e-44
1.809603336e-44
1.809903794e-44
1.810210105e-44
1.810522479e-44
1.810841144e-44
1.811166341e-44
1.811498328e-44
1.811837376e-44
1.812183778e-44
1.812537845e-44
1.812899906e-44
1.813270313e-44
1.813649441e-44
1.814037689e-44
1.81443548e-44
1.814843267e-44
1.815261529e-44
1.815690777e-44
1.816131555e-44
1.81658444e-44
1.817050046e-44
1.817529026e-44
1.818022073e-44
1.818529922e-44
1.819053357e-44
1.819593206e-44
1.820150351e-44
1.820725725e-44
1.82132032e-44
1.821935187e-44
1.82257144e-44
1.823230258e-44
1.823912893e-44
1.824620667e-44
1.825354982e-44
1.826117322e-44
1.826909255e-44
1.82773244e-44
1.828588631e-44
1.82947968e-44
1.830407546e-44
1.831374296e-44
1.832382111e-44
1.833433293e-44
1.834530271e-44
1.835675605e-44
1.836871993e-44
1.838122277e-44
1.839429451e-44
1.840796665e-44
1.842227236e-44
1.843724648e-44
1.84529257e-44
1.846934853e-44
1.848655544e-44
1.850458892e-44
1.852349357e-44
1.854331617e-44
1.856410579e-44
1.858591384e-44
1.860879419e-44
1.863280327e-44
1.865800012e-44
1.868444652e-44
1.871220709e-44
1.874134935e-44
1.877194387e-44
1.880406433e-44
1.883778763e-44
1.887319402e-44
1.891036717e-44
1.894939428e-44
1.89903662e-44
1.903337754e-44
1.907852674e-44
1.912591621e-44
1.917565242e-44
1.922784602e-44
1.928261193e-44
1.934006943e-44
1.94003423e-44
1.94635589e-44
1.952985226e-44
1.959936021e-44
1.967222543e-44
1.974859558e-44
1.982862338e-44
1.991246671e-44
2.000028867e-44
2.009225767e-44
2.018854751e-44
2.028933747e-44
2.039481235e-44
2.050516253e-44
2.062058409e-44
2.074127876e-44
2.086745407e-44
2.099932332e-44
2.113710564e-44
2.128102603e-44
2.143131537e-44
2.15882104e-44
2.175195378e-44
2.192279407e-44
2.210098569e-44
2.228678894e-44
2.248046994e-44
2.268230062e-44
2.289255865e-44
2.311152739e-44
2.333949585e-44
2.357675856e-44
2.382361553e-44
2.408037216e-44
2.434733907e-44
2.462483207e-44
2.491317195e-44
2.521268443e-44
2.552369992e-44
2.584655342e-44
2.618158436e-44
2.652913638e-44
2.688955717e-44
2.726319824e-44
2.765041479e-44
2.805156537e-44
2.846701179e-44
2.889711878e-44
2.934225379e-44
2.980278674e-44
3.027908977e-44
3.077153694e-44
3.128050401e-44
3.180636811e-44
3.234950749e-44
3.291030125e-44
3.348912899e-44
3.408637059e-44
3.470240588e-44
3.533761432e-44
3.599237477e-44
3.666706513e-44
3.736206209e-44
3.807774082e-44
3.881447471e-44
3.957263505e-44
4.035259078e-44
4.115470823e-44
4.197935085e-44
4.282687898e-44
4.369764959e-44
4.459201606e-44
4.551032801e-44
4.645293104e-44
4.742016663e-44
4.841237192e-44
4.942987961e-44
5.047301783e-44
5.154211005e-44
5.263747501e-44
5.375942671e-44
5.490827433e-44
5.608432232e-44
5.72878704e-44
5.851921367e-44
5.977864269e-44
6.106644369e-44
6.23828987e-44
6.372828581e-44
6.510287943e-44
6.650695063e-44
6.794076746e-44
6.940459538e-44
7.089869772e-44
7.242333614e-44
7.397877126e-44
7.556526317e-44
7.718307219e-44
7.883245952e-44
8.051368804e-44
8.222702317e-44
8.39727337e-44
8.575109283e-44
8.756237916e-44
8.940687777e-44
9.128488138e-44
9.319669162e-44
9.514262026e-44
9.712299065e-44
9.913813913e-44
1.011884165e-43
1.032741898e-43
1.053958438e-43
1.075537827e-43
1.097484323e-43
1.119802416e-43
1.14249685e-43
1.165572641e-43
1.189035104e-43
1.21288987e-43
1.237142916e-43
1.261800583e-43
1.286869605e-43
1.312357138e-43
1.338270781e-43
1.364618611e-43
1.391409209e-43
1.418651694e-43
1.446355749e-43
1.474531661e-43
1.50319035e-43
1.532343409e-43
1.562003134e-43
1.592182569e-43
1.622895542e-43
1.654156706e-43
1.685981579e-43
1.718386593e-43
1.751389136e-43
1.785007599e-43
1.819261425e-43
1.854171163e-43
1.889758516e-43
1.926046401e-43
1.963059005e-43
2.000821846e-43
2.039361837e-43
2.078707353e-43
2.118888298e-43
2.159936172e-43
2.201884134e-43
2.244767057e-43
2.288621587e-43
2.333486207e-43
2.379401277e-43
2.426408857e-43
2.474551973e-43
2.523875382e-43
2.574425773e-43
2.626251489e-43
2.679403313e-43
2.733934547e-43
2.789901052e-43
2.84736141e-43
2.906377144e-43
2.967012949e-43
3.029336895e-43
3.093420563e-43
3.159339196e-43
3.227172036e-43
3.297002533e-43
3.368917348e-43
3.443007511e-43
3.519368613e-43
3.598100527e-43
3.679306473e-43
3.763093187e-43
3.849571831e-43
3.938858467e-43
4.031074335e-43
4.126346143e-43
4.224806411e-43
4.32659386e-43
4.431853862e-43
4.54073895e-43
4.653409421e-43
4.770034035e-43
4.890790872e-43
5.01586836e-43
5.145466539e-43
5.279798634e-43
5.419093013e-43
5.563595652e-43
5.713573267e-43
5.8693173e-43
6.031149032e-43
6.199426163e-43
6.374551323e-43
6.556983111e-43
6.747250456e-43
6.945971359e-43
7.153877383e-43
7.371845747e-43
7.600941433e-43
7.842472508e-43
8.098062923e-43
8.369748384e-43
8.660102753e-43
8.97240481e-43
9.310858463e-43
9.680883662e-43
1.008950098e-42
1.054584026e-42
1.10618135e-42
1.165300562e-42
1.233985374e-42
1.314920889e-42
1.411640494e-42
1.528799967e-42
1.672540726e-42
1.850971288e-42
2.074805467e-42
2.358208483e-42
2.719918799e-42
3.184735701e-42
3.785492034e-42
4.565670533e-42
5.582873958e-42
6.91342803e-42
8.658487346e-42
1.095213565e-41
1.397213257e-41
1.79541726e-41
2.321080555e-41
3.015654442e-41
3.934118699e-41
5.149404217e-41
6.758263517e-41
8.889063978e-41
1.171213455e-40
1.545350416e-40
2.041314576e-40
2.698920644e-40
3.571019177e-40
4.727772096e-40
6.262333176e-40
8.298396209e-40
1.100022618e-39
1.458599204e-39
1.934548995e-39
2.566370615e-39
3.405214719e-39
4.519050408e-39
5.998206567e-39
7.962742897e-39
1.05722561e-38
1.403892761e-38
1.864488693e-38
2.476532168e-38
3.289924143e-38
4.371043764e-38
5.808202981e-38
7.718912019e-38
1.025955924e-37
1.363831116e-37
1.813230921e-37
2.411060188e-37
3.206473712e-37
4.264959093e-37
5.67378833e-37
7.549300905e-37
1.004663946e-36
1.337277264e-36
1.780392803e-36
2.370894787e-36
3.158060914e-36
4.207766784e-36
5.608136634e-36
7.477148167e-36
9.972882951e-36
1.330736708e-35
1.776529712e-35
2.372943348e-35
3.171512351e-35
4.241737216e-35
5.677522884e-35
7.606018758e-35
1.019980868e-34
1.369380942e-34
1.840884942e-34
2.478482866e-34
3.34277746e-34
4.51772358e-34
6.120356341e-34
8.314896963e-34
1.133319949e-33
1.550423775e-33
2.129633932e-33
2.93776142e-33
4.070394149e-33
5.665359788e-33
7.925081947e-33
1.115711873e-32
1.585210827e-32
2.283586219e-32
3.356010802e-32
5.063650155e-32
7.877485333e-32
1.263772175e-31
2.082358533e-31
3.502986333e-31
5.988168961e-31
1.039445791e-30
1.839376727e-30
3.346430699e-30
6.364882026e-30
1.313955903e-29
3.133561231e-29
8.9592107e-29
2.942009461e-28
1.034705129e-27
3.777485519e-27
1.426485512e-26
5.523190658e-26
2.132549338e-25
8.051172365e-25
2.969755582e-24
1.070496047e-23
3.770667567e-23
1.29726005e-22
4.356082461e-22
1.426156429e-21
4.547891535e-21
1.411562021e-20
4.261439392e-20
1.250740888e-19
3.567829714e-19
9.890581736e-19
2.66473109e-18
6.977982428e-18
1.777379024e-17
4.401072366e-17
1.06225677e-16
2.497968785e-16
5.727334234e-16
1.269700137e-15
2.742519093e-15
5.766383046e-15
1.179667408e-14
2.347010889e-14
4.53916026e-14
8.531944856e-14
1.56017971e-13
2.779176359e-13
4.828855045e-13
8.192971602e-13
1.366496828e-12
2.205898285e-12
3.469768128e-12
5.297416357e-12
7.847909467e-12
1.113252095e-11
1.51370652e-11
1.967971284e-11
2.4543145e-11
2.925356508e-11
3.343981739e-11
3.676697677e-11
3.901115129e-11
4.005693973e-11
3.991160395e-11
3.867390081e-11
3.653728494e-11
3.3692598e-11
3.042589505e-11
2.695715241e-11
2.348686225e-11
2.016933341e-11
1.710467813e-11
1.432343636e-11
1.186218916e-11
9.74195795e-12
7.94378807e-12
6.441873153e-12
5.200956961e-12
4.182204038e-12
3.352312484e-12
2.68118534e-12
2.138313186e-12
1.70923336e-12
1.364605496e-12
1.085240888e-12
8.62711597e-13
6.85706293e-13
5.450180804e-13
4.332430991e-13
3.444617454e-13
2.740328458e-13
2.180513249e-13
1.736014402e-13
1.383042563e-13
1.102690851e-13
8.799439858e-14
7.028856837e-14
5.620648426e-14
4.49989209e-14
3.607214436e-14
2.895573751e-14
2.327701075e-14
1.874067807e-14
1.511273464e-14
1.220768036e-14
9.878403267e-15
8.008173203e-15
6.504309826e-15
5.293174967e-15
4.31621334e-15
3.5268222e-15
2.887875999e-15
2.369768569e-15
1.948864093e-15
1.606271005e-15
1.326870994e-15
1.098549577e-15
9.115859994e-16
7.581691034e-16
6.320128514e-16
5.280507246e-16
4.421925878e-16
3.7113106e-16
3.121871496e-16
2.631870538e-16
2.223637167e-16
1.882780745e-16
1.597559702e-16
1.358375518e-16
1.157366298e-16
9.88079844e-17
8.452103123e-17
7.243857388e-17
6.219963534e-17
5.350556215e-17
4.610875866e-17
3.980353825e-17
3.441868066e-17
2.981136655e-17
2.586222556e-17
2.247128597e-17
1.955465574e-17
1.704179778e-17
1.48732887e-17
1.299897194e-17
1.137643285e-17
9.969737142e-18
8.748385451e-18
7.686445025e-18
6.761827428e-18
5.955686412e-18
5.25191507e-18
4.636725106e-18
4.098294178e-18
3.626469747e-18
3.212519931e-18
2.848923523e-18
2.529192746e-18
2.247723317e-18
1.999667467e-18
1.780826173e-18
1.587557576e-18
1.416699017e-18
1.265500564e-18
1.131568224e-18
1.012815443e-18
9.074214861e-19
8.137958108e-19
7.305474239e-19
6.564585425e-19
5.904619137e-19
5.3162124e-19
4.79114304e-19
4.322183516e-19
3.902974516e-19
3.527915546e-19
3.192069738e-19
2.891081421e-19
2.621104174e-19
2.378738498e-19
2.160977266e-19
1.965158253e-19
1.788922632e-19
1.630178781e-19
1.48707044e-19
1.357949045e-19
1.241349334e-19
1.135967923e-19
1.040644712e-19
9.543462091e-20
8.761511288e-20
8.052375948e-20
7.408719542e-20
6.823987476e-20
6.292320194e-20
5.808475877e-20
5.367761814e-20
4.965974869e-20
4.599347167e-20
4.264498532e-20
3.958395194e-20
3.678312134e-20
3.421800176e-20
3.186656558e-20
2.970898679e-20
2.772741556e-20
2.590576331e-20
2.422952155e-20
2.26856011e-20
2.126218448e-20
1.994859265e-20
1.873517029e-20
1.761318508e-20
1.657473192e-20
1.561264855e-20
1.472044274e-20
1.389222795e-20
1.312265951e-20
1.240688218e-20
1.174048549e-20
1.1119458e-20
1.054014879e-20
9.999233693e-21
9.493681969e-21
9.020732224e-21
8.577860239e-21
8.162765445e-21
7.773344375e-21
7.407672077e-21
7.06398774e-21
6.740679492e-21
6.436270257e-21
6.149404636e-21
5.878839179e-21
5.623431964e-21
5.382132993e-21
5.153977201e-21
4.938075841e-21
4.733610533e-21
4.539826863e-21
4.356028522e-21
4.181573117e-21
4.015866091e-21
3.858358619e-21
3.708542475e-21
3.565947118e-21
3.430136209e-21
3.300705123e-21
3.177277741e-21
3.059505766e-21
2.947064217e-21
2.83965199e-21
2.736987056e-21
2.63880802e-21
2.544869746e-21
2.454944387e-21
2.368818772e-21
2.286294106e-21
2.207182942e-21
2.131310933e-21
2.058514356e-21
1.988639762e-21
1.921543383e-21
1.857090041e-21
1.795152433e-21
1.735610878e-21
1.678352515e-21
1.623270757e-21
1.570266294e-21
1.519244075e-21
1.470114614e-21
1.422794534e-21
1.377204244e-21
1.333268175e-21
1.290915481e-21
1.250078302e-21
1.210692581e-21
1.172697643e-21
1.136035845e-21
1.100652656e-21
1.066495722e-21
1.033515403e-21
1.001664791e-21
9.708995281e-22
9.411768241e-22
9.124556124e-22
8.846977098e-22
8.578659632e-22
8.319250906e-22
8.068415349e-22
7.825829709e-22
7.591188742e-22
7.364200148e-22
7.144580422e-22
6.932060952e-22
6.726382139e-22
6.527297137e-22
6.334573077e-22
6.147982097e-22
5.967308395e-22
5.792342307e-22
5.62288455e-22
5.458745589e-22
5.299742217e-22
5.145694445e-22
4.996430776e-22
4.8517894e-22
4.711613038e-22
4.575755752e-22
4.444066958e-22
4.316408089e-22
4.192646709e-22
4.072653802e-22
3.956304264e-22
3.843476944e-22
3.73405569e-22
3.627931168e-22
3.524995118e-22
3.425145e-22
3.328280053e-22
3.234306793e-22
3.143131653e-22
3.054664212e-22
2.968819586e-22
2.885512029e-22
2.804664118e-22
2.726197143e-22
2.650035837e-22
2.576108838e-22
2.504344883e-22
2.434678373e-22
2.367041646e-22
2.301374261e-22
2.237614951e-22
2.175703645e-22
2.115585206e-22
2.057204532e-22
2.00050627e-22
1.945441601e-22
1.891959451e-22
1.840010021e-22
1.789549736e-22
1.740532972e-22
1.692915846e-22
1.646655916e-22
1.601713812e-22
1.55805e-22
1.515625067e-22
1.474402262e-22
1.434344236e-22
1.395418179e-22
1.357591461e-22
1.320829939e-22
1.285103409e-22
1.250379324e-22
1.216630576e-22
1.183826844e-22
1.151941796e-22
1.120947818e-22
1.090819217e-22
1.06152971e-22
1.033056122e-22
1.005373492e-22
9.784589143e-23
9.522915269e-23
9.268490701e-23
9.021107732e-23
8.780557319e-23
8.546641249e-23
8.319171452e-23
8.097971418e-23
7.882870957e-23
7.673676725e-23
7.470218428e-23
7.272325262e-23
7.079852342e-23
6.892642818e-23
6.710549893e-23
6.533431955e-23
6.361145159e-23
6.193550292e-23
6.03052545e-23
5.871931114e-23
5.717653609e-23
5.567557323e-23
5.421531634e-23
5.27945909e-23
5.14121595e-23
5.006714156e-23
4.875844027e-23
4.748500351e-23
4.624591902e-23
4.504013524e-23
4.386675551e-23
4.272501796e-23
4.161392538e-23
4.053252585e-23
3.948021743e-23
3.845613524e-23
3.745942974e-23
3.648945134e-23
3.554532981e-23
3.462637703e-23
3.373187977e-23
3.286129367e-23
3.201386697e-23
3.118901296e-23
3.038596477e-23
2.960427361e-23
2.884338017e-23
2.810262871e-23
2.738151473e-23
2.667951914e-23
2.599609855e-23
2.533081404e-23
2.468311971e-23
2.405250968e-23
2.343846657e-23
2.284062602e-23
2.225852609e-23
2.169173567e-23
2.113984447e-23
2.060248322e-23
2.007921792e-23
1.956971404e-23
1.907354854e-23
1.859045164e-23
1.811999065e-23
1.766183735e-23
1.721567945e-23
1.678121383e-23
1.63580608e-23
1.594594248e-23
1.554459214e-23
1.515377201e-23
1.477312035e-23
1.440238366e-23
1.404128148e-23
1.368959285e-23
1.334703449e-23
1.301333607e-23
1.268826522e-23
1.237167166e-23
1.206327379e-23
1.176286761e-23
1.147024303e-23
1.118521841e-23
1.09075156e-23
1.063700834e-23
1.037348292e-23
1.011676211e-23
9.866679053e-24
9.623055704e-24
9.385715141e-24
9.154493218e-24
8.929240571e-24
8.70983272e-24
8.496082557e-24
8.2878085e-24
8.08486425e-24
7.887082098e-24
7.694447413e-24
7.50677623e-24
7.3239349e-24
7.14582407e-24
6.972243446e-24
6.803112022e-24
6.638254416e-24
6.47765257e-24
6.321154589e-24
6.168667805e-24
6.020002068e-24
5.87518706e-24
5.734078078e-24
5.596578098e-24
5.462542984e-24
5.331899847e-24
5.204588297e-24
5.080501872e-24
4.959621767e-24
4.841821977e-24
4.727013861e-24
4.615100029e-24
4.506048659e-24
4.399726068e-24
4.296130179e-24
4.195218207e-24
4.096858864e-24
4.001006792e-24
3.907572532e-24
3.816499452e-24
3.727715996e-24
3.641166489e-24
3.556826497e-24
3.474625257e-24
3.394495613e-24
3.316381683e-24
3.240243681e-24
3.166010997e-24
3.093650675e-24
3.023161666e-24
2.954436121e-24
2.887445114e-24
2.822144636e-24
2.75848331e-24
2.696449667e-24
2.635957149e-24
2.577011441e-24
2.519548139e-24
2.463529711e-24
2.408870127e-24
2.355608504e-24
2.303691028e-24
2.253072987e-24
2.203722928e-24
2.155598255e-24
2.108687727e-24
2.062964679e-24
2.018380728e-24
1.974931067e-24
1.932554838e-24
1.891227715e-24
1.850959249e-24
1.811683977e-24
1.773385667e-24
1.736057458e-24
1.699635208e-24
1.664121082e-24
1.629519948e-24
1.595787274e-24
1.562897201e-24
1.530814119e-24
1.499528045e-24
1.469013159e-24
1.43926426e-24
1.410247314e-24
1.381938932e-24
1.354352103e-24
1.327458444e-24
1.301233889e-24
1.275670609e-24
1.250748448e-24
1.226418803e-24
1.202683867e-24
1.179527624e-24
1.156961124e-24
1.134977339e-24
1.113504723e-24
1.092536643e-24
1.072090072e-24
1.052147362e-24
1.032699612e-24
1.01373444e-24
9.952375779e-25
9.772093199e-25
9.596391879e-25
9.425170176e-25
9.257935426e-25
9.094574629e-25
8.935363253e-25
8.779852737e-25
8.628173497e-25
8.480298625e-25
8.335821933e-25
8.194779238e-25
8.056953746e-25
7.922535107e-25
7.791145476e-25
7.662748776e-25
7.537398019e-25
7.415118973e-25
7.295645297e-25
7.179000285e-25
7.064987148e-25
6.953327934e-25
6.843971625e-25
6.736822851e-25
6.632017866e-25
6.529406108e-25
6.429080122e-25
6.330716973e-25
6.234530551e-25
6.140386526e-25
6.047980135e-25
5.957361835e-25
5.232152541e-25
4.475292768e-25
3.941290161e-25
3.564209283e-25
3.299500176e-25
3.113137635e-25
2.985108454e-25
2.89757701e-25
2.841479237e-25
2.808373897e-25
2.790641601e-25
2.786668999e-25
2.791977726e-25
2.805325905e-25
2.824976763e-25
2.851120636e-25
2.881843415e-25
2.917067384e-25
2.957219272e-25
3.00189504e-25
3.050832354e-25
3.103956645e-25
3.161985153e-25
3.224526888e-25
3.291983338e-25
3.364478115e-25
3.442251887e-25
3.525589401e-25
3.614634938e-25
3.70967233e-25
3.81097548e-25
3.918781563e-25
4.03337946e-25
4.155002801e-25
4.283913428e-25
4.420352224e-25
4.564575279e-25
4.716757048e-25
4.877099106e-25
5.045753631e-25
5.222829345e-25
5.408386398e-25
5.602440267e-25
5.804944396e-25
6.015839864e-25
6.234930063e-25
6.461914384e-25
6.696447202e-25
6.938266332e-25
7.186619555e-25
7.441084861e-25
7.700821235e-25
7.965170504e-25
8.23324772e-25
8.5040841e-25
8.776623354e-25
9.04995691e-25
9.322858156e-25
9.594257056e-25
9.862954847e-25
1.012792978e-24
1.038799827e-24
1.064207744e-24
1.088922211e-24
1.112844653e-24
1.135891612e-24
1.157988818e-24
1.179072048e-24
1.199088515e-24
1.217998327e-24
1.235773215e-24
1.252398336e-24
1.267868706e-24
1.282192967e-24
1.295388035e-24
1.307481549e-24
1.318507817e-24
1.328512855e-24
1.337543545e-24
1.345651413e-24
1.352896514e-24
1.359337777e-24
1.365034398e-24
1.370047185e-24
1.374436409e-24
1.378258448e-24
1.381572064e-24
1.384427189e-24
1.386875748e-24
1.388963405e-24
1.390733257e-24
1.3922248e-24
1.39347346e-24
1.394510891e-24
1.395365744e-24
1.396063563e-24
1.396626518e-24
1.397073918e-24
1.397423415e-24
1.397689387e-24
1.397884961e-24
1.398021041e-24
1.398107562e-24
1.398152771e-24
1.398163953e-24
1.398147417e-24
1.398108759e-24
1.398052724e-24
1.397983629e-24
1.397905117e-24
1.397820431e-24
1.397732351e-24
1.397643318e-24
1.397555264e-24
1.397469939e-24
1.397388571e-24
1.39731223e-24
1.397241577e-24
1.39717704e-24
1.397118792e-24
1.397066745e-24
1.397020642e-24
1.396980046e-24
1.396944395e-24
1.396913016e-24
1.396885207e-24
1.396860221e-24
1.396837292e-24
1.396815743e-24
1.396794912e-24
1.396774231e-24
1.396753242e-24
1.396731549e-24
1.396708903e-24
1.396685134e-24
1.396660172e-24
1.396634063e-24
1.396606897e-24
1.396578851e-24
1.396550149e-24
1.396521036e-24
1.396491797e-24
1.396462687e-24
1.39643407e-24
1.396406026e-24
1.39637884e-24
1.39635274e-24
1.396327799e-24
1.396304194e-24
1.396281875e-24
1.396260931e-24
1.39624139e-24
1.396223188e-24
1.396206189e-24
1.396190369e-24
1.396175617e-24
1.396161784e-24
1.396148931e-24
1.396136742e-24
1.396125348e-24
1.396114429e-24
1.396104093e-24
1.39609425e-24
1.396084729e-24
1.396075626e-24
1.396066796e-24
1.396058389e-24
1.396050191e-24
1.396042264e-24
1.396034673e-24
1.396027443e-24
1.396020389e-24
1.396013728e-24
1.39600733e-24
1.396001377e-24
1.39599569e-24
1.395990466e-24
1.395985622e-24
1.39598111e-24
1.395977154e-24
1.395973621e-24
1.395970627e-24
1.395968105e-24
1.395966087e-24
1.395964632e-24
1.395963749e-24
1.395963392e-24
1.39596357e-24
1.395964283e-24
1.395965554e-24
1.395967342e-24
1.395969604e-24
1.395972335e-24
1.395975449e-24
1.395978964e-24
1.39598275e-24
1.395986934e-24
1.395991228e-24
1.395995744e-24
1.396000347e-24
1.396004998e-24
1.396009612e-24
1.396014192e-24
1.396018603e-24
1.396022892e-24
1.396026895e-24
1.396030627e-24
1.396034049e-24
1.396037135e-24
1.396039845e-24
1.396042128e-24
1.39604401e-24
1.396045443e-24
1.396046439e-24
1.39604704e-24
1.396047125e-24
1.396046863e-24
1.396046105e-24
1.396045042e-24
1.396043559e-24
1.396041733e-24
1.396039586e-24
1.396037161e-24
1.396034442e-24
1.396031504e-24
1.396028358e-24
1.396025033e-24
1.396021566e-24
1.396017984e-24
1.396014313e-24
1.396010588e-24
1.396006837e-24
1.396003061e-24
1.395999303e-24
1.395995598e-24
1.395991934e-24
1.395988345e-24
1.395984851e-24
1.395981429e-24
1.395978154e-24
1.395974966e-24
1.39597191e-24
1.395969025e-24
1.395966207e-24
1.39596356e-24
1.395961084e-24
1.395958795e-24
1.395956537e-24
1.395954648e-24
1.395953089e-24
)
;

boundaryField
{
    inlet
    {
        type            fixedValue;
        value           uniform 0;
    }
    outlet
    {
        type            zeroGradient;
    }
    wall
    {
        type            empty;
    }
}


// ************************************************************************* //
