/*--------------------------------*- C++ -*----------------------------------*\
  =========                 |
  \\      /  F ield         | OpenFOAM: The Open Source CFD Toolbox
   \\    /   O peration     | Website:  https://openfoam.org
    \\  /    A nd           | Version:  7
     \\/     M anipulation  |
\*---------------------------------------------------------------------------*/
FoamFile
{
    version     2.0;
    format      ascii;
    class       volScalarField;
    location    "0.000558243009";
    object      C2H3;
}
// * * * * * * * * * * * * * * * * * * * * * * * * * * * * * * * * * * * * * //

dimensions      [0 0 0 0 0 0 0];

internalField   nonuniform List<scalar> 
1500
(
1.083311252e-26
9.993625545e-27
8.902451164e-27
7.90071144e-27
7.193858832e-27
6.77239592e-27
6.550836686e-27
6.446481077e-27
6.402072562e-27
6.384735916e-27
6.378236191e-27
6.375582109e-27
6.374147368e-27
6.373088027e-27
6.372191604e-27
6.371427948e-27
6.370798307e-27
6.37029625e-27
6.369905436e-27
6.369606255e-27
6.369381593e-27
6.369219296e-27
6.369111727e-27
6.369053737e-27
6.36904042e-27
6.36906554e-27
6.36912099e-27
6.369197181e-27
6.369283992e-27
6.369371863e-27
6.369452706e-27
6.369520438e-27
6.36957111e-27
6.369602725e-27
6.369614873e-27
6.369608315e-27
6.369584613e-27
6.369545833e-27
6.369494342e-27
6.369432675e-27
6.369363432e-27
6.36928919e-27
6.3692124e-27
6.369135267e-27
6.369059647e-27
6.368986957e-27
6.368918134e-27
6.36885364e-27
6.368793512e-27
6.368737456e-27
6.368684957e-27
6.368635401e-27
6.368588186e-27
6.368542812e-27
6.36849895e-27
6.368456476e-27
6.368415488e-27
6.368376294e-27
6.368339389e-27
6.368305419e-27
6.368275136e-27
6.368249359e-27
6.368228927e-27
6.36821466e-27
6.368207316e-27
6.368207551e-27
6.368215887e-27
6.368232675e-27
6.36825807e-27
6.36829201e-27
6.368334204e-27
6.368384125e-27
6.36844102e-27
6.368503925e-27
6.368571687e-27
6.368643e-27
6.368716446e-27
6.368790532e-27
6.368863739e-27
6.368934569e-27
6.369001581e-27
6.369063437e-27
6.36911893e-27
6.369167019e-27
6.369206844e-27
6.369237748e-27
6.36925928e-27
6.369271201e-27
6.369273479e-27
6.369266282e-27
6.369249968e-27
6.36922507e-27
6.369192281e-27
6.369152428e-27
6.369106455e-27
6.369055394e-27
6.369000336e-27
6.368942406e-27
6.368882726e-27
6.36882239e-27
6.368762431e-27
6.368703795e-27
6.368647312e-27
6.368593673e-27
6.368543415e-27
6.368496911e-27
6.368454361e-27
6.368415795e-27
6.368381089e-27
6.368349975e-27
6.36832207e-27
6.368296899e-27
6.368273931e-27
6.368252611e-27
6.368232392e-27
6.368212763e-27
6.368193281e-27
6.368173587e-27
6.368153425e-27
6.368132643e-27
6.368111199e-27
6.368089152e-27
6.368066652e-27
6.368043922e-27
6.368021239e-27
6.367998918e-27
6.367977287e-27
6.367956671e-27
6.367937381e-27
6.3679197e-27
6.367903875e-27
6.36789012e-27
6.367878615e-27
6.367869508e-27
6.36786293e-27
6.367858996e-27
6.367857816e-27
6.367859505e-27
6.367864185e-27
6.367871987e-27
6.367883053e-27
6.367897534e-27
6.367915576e-27
6.367937317e-27
6.367962875e-27
6.367992334e-27
6.368025729e-27
6.368063043e-27
6.368104187e-27
6.368149001e-27
6.368197247e-27
6.36824861e-27
6.3683027e-27
6.368359061e-27
6.36841718e-27
6.368476502e-27
6.368536442e-27
6.368596402e-27
6.368655785e-27
6.368714014e-27
6.368770535e-27
6.368824838e-27
6.368876453e-27
6.368924963e-27
6.368969996e-27
6.36901123e-27
6.369048385e-27
6.369081216e-27
6.369109508e-27
6.369133073e-27
6.369151742e-27
6.36916536e-27
6.369173795e-27
6.369176931e-27
6.369174677e-27
6.369166977e-27
6.369153819e-27
6.369135246e-27
6.36911137e-27
6.369082391e-27
6.369048609e-27
6.36901044e-27
6.368968429e-27
6.368923262e-27
6.368875774e-27
6.368826944e-27
6.368777889e-27
6.368729846e-27
6.368684138e-27
6.368642133e-27
6.368605189e-27
6.368574599e-27
6.368551519e-27
6.368536915e-27
6.368531509e-27
6.368535747e-27
6.368549787e-27
6.368573518e-27
6.368606596e-27
6.368648514e-27
6.368698672e-27
6.368756459e-27
6.368821313e-27
6.368892761e-27
6.368970405e-27
6.369053867e-27
6.369142682e-27
6.36923615e-27
6.369333164e-27
6.36943205e-27
6.369530454e-27
6.369625309e-27
6.369712926e-27
6.36978923e-27
6.369850156e-27
6.369892187e-27
6.369913004e-27
6.369912168e-27
6.369891763e-27
6.369856892e-27
6.369815897e-27
6.369780236e-27
6.369763911e-27
6.369782427e-27
6.369851303e-27
6.369984207e-27
6.370190881e-27
6.370475055e-27
6.370832613e-27
6.371250307e-27
6.371705289e-27
6.372165707e-27
6.372592549e-27
6.372942764e-27
6.373173611e-27
6.373247959e-27
6.373140164e-27
6.372841951e-27
6.372367647e-27
6.371758029e-27
6.371082099e-27
6.37043615e-27
6.369939794e-27
6.369728929e-27
6.369946554e-27
6.370732794e-27
6.372216e-27
6.37449715e-27
6.377586429e-27
6.381123929e-27
6.382341701e-27
6.382656421e-27
6.38297763e-27
6.383304638e-27
6.38363714e-27
6.383975035e-27
6.384318318e-27
6.384667035e-27
6.385021256e-27
6.385381065e-27
6.385746554e-27
6.386117816e-27
6.38649495e-27
6.386878054e-27
6.387267234e-27
6.387662599e-27
6.388064266e-27
6.388472355e-27
6.388886998e-27
6.389308332e-27
6.389736501e-27
6.39017166e-27
6.390613973e-27
6.391063612e-27
6.391520763e-27
6.391985619e-27
6.392458387e-27
6.392939287e-27
6.393428551e-27
6.393926426e-27
6.394433173e-27
6.394949071e-27
6.395474414e-27
6.396009515e-27
6.396554707e-27
6.397110342e-27
6.397676795e-27
6.398254463e-27
6.398843771e-27
6.399445165e-27
6.400059124e-27
6.400686154e-27
6.401326794e-27
6.401981616e-27
6.402651228e-27
6.403336278e-27
6.404037454e-27
6.404755488e-27
6.405491159e-27
6.406245294e-27
6.407018775e-27
6.407812542e-27
6.408627591e-27
6.409464989e-27
6.410325867e-27
6.411211432e-27
6.41212297e-27
6.413061851e-27
6.414029537e-27
6.415027583e-27
6.416057651e-27
6.417121512e-27
6.418221053e-27
6.419358292e-27
6.420535378e-27
6.421754606e-27
6.423018427e-27
6.424329456e-27
6.425690487e-27
6.427104502e-27
6.428574686e-27
6.430104442e-27
6.431697405e-27
6.433357458e-27
6.435088749e-27
6.43689571e-27
6.438783078e-27
6.440755913e-27
6.442819623e-27
6.444979983e-27
6.447243168e-27
6.449615772e-27
6.45210484e-27
6.454717898e-27
6.457462986e-27
6.460348688e-27
6.463384172e-27
6.466579226e-27
6.469944299e-27
6.473490542e-27
6.477229853e-27
6.481174928e-27
6.485339303e-27
6.489737415e-27
6.49438465e-27
6.499297406e-27
6.504493149e-27
6.50999048e-27
6.515809203e-27
6.521970389e-27
6.528496455e-27
6.535411235e-27
6.542740065e-27
6.550509861e-27
6.558749205e-27
6.567488439e-27
6.576759753e-27
6.586597282e-27
6.597037209e-27
6.608117862e-27
6.619879825e-27
6.632366046e-27
6.645621948e-27
6.659695546e-27
6.674637566e-27
6.690501565e-27
6.707344058e-27
6.72522464e-27
6.74420612e-27
6.76435465e-27
6.785739857e-27
6.80843498e-27
6.832517006e-27
6.858066804e-27
6.885169269e-27
6.913913453e-27
6.944392709e-27
6.976704828e-27
7.010952171e-27
7.047241813e-27
7.085685669e-27
7.12640063e-27
7.16950869e-27
7.215137073e-27
7.26341835e-27
7.314490559e-27
7.368497318e-27
7.425587925e-27
7.485917462e-27
7.549646881e-27
7.616943097e-27
7.687979052e-27
7.762933791e-27
7.841992511e-27
7.925346611e-27
8.013193724e-27
8.105737738e-27
8.203188809e-27
8.305763354e-27
8.413684034e-27
8.527179721e-27
8.646485452e-27
8.771842364e-27
8.903497613e-27
9.041704279e-27
9.186721254e-27
9.338813103e-27
9.498249925e-27
9.665307174e-27
9.840265481e-27
1.002341044e-26
1.02150324e-26
1.041542619e-26
1.06248909e-26
1.084372956e-26
1.107224886e-26
1.131075883e-26
1.155957249e-26
1.181900552e-26
1.208937587e-26
1.237100338e-26
1.266420936e-26
1.296931618e-26
1.328664686e-26
1.361652457e-26
1.395927222e-26
1.431521195e-26
1.46846647e-26
1.506794963e-26
1.546538373e-26
1.587728122e-26
1.630395311e-26
1.674570664e-26
1.72028448e-26
1.767566579e-26
1.816446253e-26
1.866952214e-26
1.919112542e-26
1.97295464e-26
2.028505181e-26
2.085790063e-26
2.144834363e-26
2.20566229e-26
2.268297144e-26
2.332761278e-26
2.399076052e-26
2.467261804e-26
2.537337811e-26
2.609322262e-26
2.683232228e-26
2.759083634e-26
2.836891243e-26
2.916668636e-26
2.998428194e-26
3.082181096e-26
3.167937301e-26
3.255705559e-26
3.345493401e-26
3.437307158e-26
3.531151964e-26
3.627031777e-26
3.724949399e-26
3.824906508e-26
3.926903685e-26
4.030940455e-26
4.137015332e-26
4.245125869e-26
4.355268713e-26
4.467439666e-26
4.581633757e-26
4.697845316e-26
4.816068054e-26
4.936295152e-26
5.058519357e-26
5.182733085e-26
5.308928528e-26
5.437097773e-26
5.567232925e-26
5.699326237e-26
5.833370254e-26
5.969357957e-26
6.107282919e-26
6.247139468e-26
6.388922861e-26
6.532629464e-26
6.67825694e-26
6.825804449e-26
6.975272856e-26
7.126664945e-26
7.279985651e-26
7.43524229e-26
7.59244481e-26
7.751606046e-26
7.912741986e-26
8.075872052e-26
8.241019386e-26
8.40821115e-26
8.577478839e-26
8.748858606e-26
8.922391591e-26
9.098124276e-26
9.276108839e-26
9.456403532e-26
9.63907306e-26
9.82418899e-26
1.001183015e-25
1.020208308e-25
1.039504242e-25
1.05908114e-25
1.078950218e-25
1.099123594e-25
1.11961423e-25
1.14043576e-25
1.161602709e-25
1.183132118e-25
1.205041493e-25
1.22734932e-25
1.250078217e-25
1.273250806e-25
1.29689062e-25
1.321022598e-25
1.345673239e-25
1.370870698e-25
1.396644862e-25
1.423027411e-25
1.450051856e-25
1.477753444e-25
1.506168424e-25
1.535333046e-25
1.565291231e-25
1.596087531e-25
1.627767623e-25
1.660378824e-25
1.693972159e-25
1.728602413e-25
1.764326853e-25
1.801205191e-25
1.839299874e-25
1.87867631e-25
1.919403021e-25
1.961551767e-25
2.005197666e-25
2.050419311e-25
2.097298896e-25
2.145922343e-25
2.196379434e-25
2.24876395e-25
2.303173817e-25
2.359711252e-25
2.41848292e-25
2.479600104e-25
2.54317887e-25
2.609340249e-25
2.678210428e-25
2.749920949e-25
2.824608916e-25
2.902417217e-25
2.983494756e-25
3.067996701e-25
3.156084742e-25
3.247927367e-25
3.343700149e-25
3.443586062e-25
3.547775801e-25
3.656468134e-25
3.769870269e-25
3.888198248e-25
4.011677363e-25
4.140542606e-25
4.275039146e-25
4.415422834e-25
4.561960758e-25
4.714931829e-25
4.87462742e-25
5.041352054e-25
5.215424159e-25
5.397176895e-25
5.586959057e-25
5.785136097e-25
5.99209125e-25
6.208226825e-25
6.433965668e-25
6.669752866e-25
6.916057733e-25
7.173376156e-25
7.44223341e-25
7.723187558e-25
8.016833604e-25
8.323808621e-25
8.644798132e-25
8.980544106e-25
9.331855064e-25
9.699618903e-25
1.008481927e-24
1.048855652e-24
1.091207475e-24
1.135679652e-24
1.182436794e-24
1.231671688e-24
1.283612871e-24
1.338534451e-24
1.396768906e-24
1.458723729e-24
1.524903128e-24
1.595936329e-24
1.672614481e-24
1.755938852e-24
1.847183743e-24
1.947978687e-24
2.060415859e-24
2.18719048e-24
2.331784413e-24
2.498706308e-24
2.693805834e-24
2.924684968e-24
3.201236548e-24
3.536349727e-24
3.946834466e-24
4.454633633e-24
5.088413043e-24
5.885648454e-24
6.895366647e-24
8.181748125e-24
9.828866083e-24
1.194692555e-23
1.468048574e-23
1.8219308e-23
2.281268535e-23
2.878839697e-23
3.657781845e-23
4.674924334e-23
6.005218395e-23
7.747639134e-23
1.003306655e-22
1.303483584e-22
1.698290042e-22
2.21829032e-22
2.90419434e-22
3.810351776e-22
5.009509331e-22
6.599316133e-22
8.71126195e-22
1.152302121e-21
1.527559546e-21
2.02972625e-21
2.703725139e-21
3.611342407e-21
4.838029188e-21
6.502679599e-21
8.771804161e-21
1.188025746e-20
1.616183725e-20
2.209490435e-20
3.037110616e-20
4.200004057e-20
5.847049466e-20
8.200184606e-20
1.159410237e-19
1.653976346e-19
2.382742567e-19
3.469619802e-19
5.111727885e-19
7.627451106e-19
1.153929929e-18
1.77191837e-18
2.764756111e-18
4.388395415e-18
7.093691286e-18
1.169023859e-17
1.966066167e-17
3.377455984e-17
5.930886047e-17
1.065128304e-16
1.95657286e-16
3.674917752e-16
7.050556401e-16
1.379264577e-15
2.743810216e-15
5.530555456e-15
1.124439636e-14
2.294039045e-14
4.670378455e-14
9.437153148e-14
1.883981749e-13
3.705011923e-13
7.174384023e-13
1.371178934e-12
2.598368845e-12
4.907676695e-12
9.281946567e-12
1.764443091e-11
3.379321436e-11
6.523963911e-11
1.26760694e-10
2.471314237e-10
4.815296454e-10
9.335411894e-10
1.792257727e-09
3.392893694e-09
6.303093584e-09
1.146691317e-08
2.03602803e-08
3.522944759e-08
5.907178149e-08
9.616178727e-08
1.523614807e-07
2.349627471e-07
3.523791424e-07
5.138782362e-07
7.300188808e-07
1.014837947e-06
1.38875247e-06
1.881499656e-06
2.535095809e-06
3.415200293e-06
4.563395285e-06
6.05792744e-06
7.958705495e-06
1.032949176e-05
1.313106794e-05
1.63476709e-05
1.990359849e-05
2.37545169e-05
2.76849553e-05
3.151738192e-05
3.503638229e-05
3.802775265e-05
4.028793033e-05
4.166330456e-05
4.207047866e-05
4.149781606e-05
4.000412737e-05
3.776707245e-05
3.497630909e-05
3.184138544e-05
2.855819455e-05
2.528227057e-05
2.210791758e-05
1.912625477e-05
1.640808346e-05
1.397651388e-05
1.183882602e-05
9.983033354e-06
8.384237475e-06
7.019194355e-06
5.862597898e-06
4.881434095e-06
4.065883832e-06
3.380118909e-06
2.799865354e-06
2.316318775e-06
1.914281947e-06
1.580579491e-06
1.303979637e-06
1.07499103e-06
8.85799546e-07
7.29392341e-07
6.003273614e-07
4.939212079e-07
4.062670682e-07
3.341118999e-07
2.747518804e-07
2.259435233e-07
1.858282843e-07
1.528687868e-07
1.257950418e-07
1.035592336e-07
8.529781382e-08
7.029981028e-08
5.798039452e-08
4.785888619e-08
3.954048313e-08
3.270111915e-08
2.707493028e-08
2.244389757e-08
1.862930058e-08
1.548467344e-08
1.289000615e-08
1.07469759e-08
8.975029217e-09
7.508165979e-09
6.292301501e-09
5.283104395e-09
4.444225449e-09
3.745847592e-09
3.163499288e-09
2.677083866e-09
2.270085744e-09
1.92892143e-09
1.642409e-09
1.401334422e-09
1.19809706e-09
1.026419852e-09
8.81112339e-10
7.578768264e-10
6.531497919e-10
5.639720571e-10
4.878824537e-10
4.228306756e-10
3.67105803e-10
3.192776334e-10
2.781484793e-10
2.427135283e-10
2.121282075e-10
1.856812839e-10
1.627726663e-10
1.428950605e-10
1.256187901e-10
1.105792161e-10
9.746629645e-11
8.601590632e-11
7.600261068e-11
6.723363638e-11
5.954383548e-11
5.279146961e-11
4.685467503e-11
4.162849323e-11
3.702237183e-11
3.295805755e-11
2.936781629e-11
2.619292691e-11
2.338240411e-11
2.089191372e-11
1.868284957e-11
1.672154664e-11
1.497860906e-11
1.342833516e-11
1.20482249e-11
1.081855694e-11
9.722025014e-12
8.74342488e-12
7.869384179e-12
7.088129144e-12
6.389282757e-12
5.763689873e-12
5.203265492e-12
4.70086295e-12
4.250159242e-12
3.845555142e-12
3.482088085e-12
3.155356101e-12
2.861451317e-12
2.596901752e-12
2.358620328e-12
2.143860141e-12
1.950175191e-12
1.775385868e-12
1.617548587e-12
1.474929052e-12
1.34597869e-12
1.229313864e-12
1.123697516e-12
1.028022948e-12
9.412994807e-13
8.626397562e-13
7.912484932e-13
7.26412519e-13
6.674919274e-13
6.139122288e-13
5.651573771e-13
5.207635726e-13
4.803137466e-13
4.434326547e-13
4.097825054e-13
3.790590641e-13
3.509881787e-13
3.253226807e-13
3.018396166e-13
2.803377753e-13
2.60635479e-13
2.425686057e-13
2.259888212e-13
2.107619949e-13
1.967667825e-13
1.838933532e-13
1.720422508e-13
1.611233708e-13
1.510550425e-13
1.417632042e-13
1.331806628e-13
1.25246428e-13
1.179051135e-13
1.111063983e-13
1.048045417e-13
9.895794653e-14
9.352876612e-14
8.848254921e-14
8.378792032e-14
7.941629134e-14
7.534160088e-14
7.154007974e-14
6.799003787e-14
6.467167316e-14
6.15668975e-14
5.865918029e-14
5.593340621e-14
5.337574683e-14
5.097354461e-14
4.87152071e-14
4.659011194e-14
4.458851966e-14
4.270149582e-14
4.09208397e-14
3.923901959e-14
3.764911398e-14
3.614475849e-14
3.472009754e-14
3.336974021e-14
3.208872011e-14
3.087245938e-14
2.971673515e-14
2.86176498e-14
2.757160331e-14
2.657526823e-14
2.562556704e-14
2.471965142e-14
2.385488289e-14
2.302881627e-14
2.223918332e-14
2.148387871e-14
2.076094642e-14
2.006856822e-14
1.94050524e-14
1.876882399e-14
1.815841521e-14
1.757245747e-14
1.700967336e-14
1.646886974e-14
1.594893126e-14
1.544881455e-14
1.49675425e-14
1.450419971e-14
1.405792756e-14
1.362792013e-14
1.321342041e-14
1.281371668e-14
1.242813926e-14
1.205605749e-14
1.169687722e-14
1.135003777e-14
1.101501013e-14
1.069129438e-14
1.037841811e-14
1.007593413e-14
9.783419082e-15
9.500471838e-15
9.226711882e-15
8.961778202e-15
8.705327867e-15
8.457034969e-15
8.216589626e-15
7.983696827e-15
7.758075805e-15
7.539458771e-15
7.32759042e-15
7.122227163e-15
6.923136453e-15
6.730096085e-15
6.542893692e-15
6.361326097e-15
6.185198794e-15
6.014325617e-15
5.848528199e-15
5.687635616e-15
5.531483884e-15
5.379915669e-15
5.232779842e-15
5.08993142e-15
4.951230951e-15
4.816544531e-15
4.685743345e-15
4.558703488e-15
4.435305642e-15
4.315434858e-15
4.198980664e-15
4.085836438e-15
3.975899462e-15
3.869070682e-15
3.765254614e-15
3.664359174e-15
3.56629539e-15
3.470977471e-15
3.378322534e-15
3.288250563e-15
3.20068425e-15
3.115548889e-15
3.032772203e-15
2.952284451e-15
2.874018111e-15
2.797907898e-15
2.723890645e-15
2.65190523e-15
2.581892482e-15
2.51379519e-15
2.447557927e-15
2.383127051e-15
2.320450564e-15
2.259478167e-15
2.200161074e-15
2.142452048e-15
2.086305296e-15
2.031676416e-15
1.978522411e-15
1.926801532e-15
1.87647338e-15
1.827498741e-15
1.779839643e-15
1.733459173e-15
1.688321524e-15
1.644392035e-15
1.601637003e-15
1.560023782e-15
1.519520643e-15
1.480096773e-15
1.441722394e-15
1.404368492e-15
1.368006905e-15
1.332610313e-15
1.298152161e-15
1.264606739e-15
1.231949033e-15
1.200154731e-15
1.169200213e-15
1.139062573e-15
1.109719566e-15
1.081149567e-15
1.05333158e-15
1.026245183e-15
9.998705519e-16
9.741883685e-16
9.49179948e-16
9.248270646e-16
9.011120553e-16
8.780176967e-16
8.555273087e-16
8.336246678e-16
8.122939688e-16
7.915199015e-16
7.712875063e-16
7.515823036e-16
7.323901949e-16
7.136974949e-16
6.954908474e-16
6.777573236e-16
6.604842912e-16
6.43659492e-16
6.272710425e-16
6.113073397e-16
5.957571069e-16
5.806093844e-16
5.658535033e-16
5.514791055e-16
5.374761003e-16
5.238346701e-16
5.105452765e-16
4.9759865e-16
4.849857252e-16
4.726977311e-16
4.607261148e-16
4.49062549e-16
4.376989626e-16
4.266274704e-16
4.158404105e-16
4.053303205e-16
3.950899522e-16
3.851122342e-16
3.753903093e-16
3.659174848e-16
3.566872557e-16
3.476932894e-16
3.389294303e-16
3.303896875e-16
3.220682062e-16
3.139593143e-16
3.060574607e-16
2.983572872e-16
2.908535516e-16
2.835411426e-16
2.764151071e-16
2.694706073e-16
2.627029257e-16
2.561075e-16
2.496798772e-16
2.43415717e-16
2.373107707e-16
2.31360938e-16
2.25562195e-16
2.199106586e-16
2.144025247e-16
2.090341103e-16
2.038018205e-16
1.98702136e-16
1.937316472e-16
1.888870148e-16
1.841650223e-16
1.795624908e-16
1.750763755e-16
1.707036973e-16
1.664415261e-16
1.622870341e-16
1.582374654e-16
1.542901338e-16
1.504424111e-16
1.466917548e-16
1.430356882e-16
1.394717785e-16
1.359976737e-16
1.326110859e-16
1.2930977e-16
1.260915565e-16
1.229543263e-16
1.19896017e-16
1.169146086e-16
1.140081432e-16
1.111747045e-16
1.084124418e-16
1.05719548e-16
1.030942581e-16
1.005348472e-16
9.803965284e-17
9.560702996e-17
9.323538952e-17
9.092317929e-17
8.866891146e-17
8.647111185e-17
8.432834658e-17
8.223920987e-17
8.020235117e-17
7.82164446e-17
7.628021022e-17
7.439237643e-17
7.255173047e-17
7.075708232e-17
6.900725757e-17
6.730113041e-17
6.563759294e-17
6.401557408e-17
6.243402138e-17
6.08919213e-17
5.938827636e-17
5.792210927e-17
5.649248633e-17
5.509848305e-17
5.373919861e-17
5.241375469e-17
5.112131199e-17
4.986104164e-17
4.863213286e-17
4.743378251e-17
4.626523677e-17
4.512574396e-17
4.401456892e-17
4.2930994e-17
4.187434243e-17
4.084392638e-17
3.983909732e-17
3.885920929e-17
3.790363486e-17
3.697176676e-17
3.606301247e-17
3.517678715e-17
3.431253242e-17
3.346969163e-17
3.264772795e-17
3.184612667e-17
3.106438042e-17
3.03019909e-17
2.955846956e-17
2.883335252e-17
2.812617831e-17
2.74364946e-17
2.676386294e-17
2.610786458e-17
2.546807633e-17
2.484409466e-17
2.423554056e-17
2.364201594e-17
2.306314756e-17
2.249856718e-17
2.194791369e-17
2.141084817e-17
2.088703049e-17
2.037612982e-17
1.987783158e-17
1.939182219e-17
1.891779281e-17
1.845543744e-17
1.800447123e-17
1.756460719e-17
1.713557278e-17
1.67170961e-17
1.630891786e-17
1.591078527e-17
1.552244205e-17
1.51436454e-17
1.477415219e-17
1.441374042e-17
1.406218189e-17
1.371926125e-17
1.338475632e-17
1.305846362e-17
1.274017394e-17
1.242968983e-17
1.21268112e-17
1.183135513e-17
1.154312778e-17
1.126195379e-17
1.098766134e-17
1.072007113e-17
1.045901334e-17
1.020433181e-17
9.955860309e-18
9.713448297e-18
9.476944509e-18
9.246196199e-18
9.021052099e-18
8.801378046e-18
8.587032658e-18
8.377876348e-18
8.17377598e-18
7.974598084e-18
7.780217711e-18
7.590512394e-18
7.405358947e-18
7.224632279e-18
7.048219843e-18
6.876008008e-18
6.707873851e-18
6.543711712e-18
6.383406035e-18
6.226849808e-18
6.073944155e-18
5.924577141e-18
5.778645314e-18
5.636053242e-18
5.496694851e-18
5.360471397e-18
5.227283457e-18
5.097034118e-18
4.969635058e-18
4.844985467e-18
4.72299699e-18
4.60357458e-18
4.486632345e-18
4.372086735e-18
4.259850038e-18
4.149839979e-18
4.041980138e-18
3.936198167e-18
3.832424646e-18
3.003775601e-18
2.132213187e-18
1.517430964e-18
1.079730814e-18
7.675508909e-19
5.449323801e-19
3.863846178e-19
2.736172786e-19
1.934893333e-19
1.36603541e-19
9.635824106e-20
6.784520337e-20
4.769690371e-20
3.347615358e-20
2.348769773e-20
1.644493569e-20
1.148698877e-20
8.029918893e-21
5.593106493e-21
3.898338201e-21
2.713315992e-21
1.882109388e-21
1.299536063e-21
9.059200923e-22
6.274721065e-22
4.339908015e-22
3.001116075e-22
2.074215229e-22
1.436488034e-22
9.98348682e-23
6.957167562e-23
4.894331246e-23
3.487957639e-23
2.510906144e-23
1.890462346e-23
1.404426377e-23
1.077402244e-23
9.012329257e-24
7.871965505e-24
6.658750393e-24
6.692350788e-24
6.065841375e-24
5.840773327e-24
6.224691448e-24
6.702173979e-24
6.915006367e-24
5.650620897e-24
7.764130364e-24
5.47760723e-24
5.849429549e-24
8.462145212e-24
8.329002794e-24
7.809661857e-24
8.736970198e-24
8.462401093e-24
9.171388128e-24
9.472940475e-24
1.07227183e-23
1.095914269e-23
1.034980526e-23
1.113435843e-23
1.157285833e-23
1.208489744e-23
1.16967883e-23
1.226588143e-23
1.262026771e-23
1.311411662e-23
1.347776709e-23
1.372966405e-23
1.405618267e-23
1.424947462e-23
1.448107284e-23
1.486651001e-23
1.493537505e-23
1.512750595e-23
1.531895033e-23
1.607230696e-23
1.604799755e-23
1.592246095e-23
1.576082262e-23
1.608945888e-23
1.607147182e-23
1.631229419e-23
1.65105238e-23
1.638620326e-23
1.635333666e-23
1.647227507e-23
1.645894595e-23
1.66023537e-23
1.660582599e-23
1.65897567e-23
1.658020619e-23
1.654925046e-23
1.650108989e-23
1.662987832e-23
1.66378492e-23
1.662922009e-23
1.664253287e-23
1.666532204e-23
1.667577295e-23
1.666755787e-23
1.670289387e-23
1.669110495e-23
1.669746229e-23
1.669629494e-23
1.667550628e-23
1.667355622e-23
1.667206618e-23
1.667988328e-23
1.667135083e-23
1.668607805e-23
1.668468301e-23
1.667338276e-23
1.668014682e-23
1.668059518e-23
1.667835028e-23
1.668130087e-23
1.667465375e-23
1.667313323e-23
1.667508379e-23
1.667412192e-23
1.667254307e-23
1.667560519e-23
1.667208355e-23
1.66722953e-23
1.667053605e-23
1.666721318e-23
1.666750605e-23
1.666978713e-23
1.666811543e-23
1.666645163e-23
1.666401986e-23
1.666815055e-23
1.666471398e-23
1.667133242e-23
1.666992356e-23
1.666018953e-23
1.666970796e-23
1.667225846e-23
1.666912329e-23
1.665937042e-23
1.666228082e-23
1.667278221e-23
1.666558957e-23
1.666336178e-23
1.665799721e-23
1.665188058e-23
1.666653822e-23
1.667307192e-23
1.666917816e-23
1.667384104e-23
1.666549631e-23
1.666143953e-23
1.663782258e-23
1.666070554e-23
1.665183579e-23
1.665285862e-23
1.665983874e-23
1.66591861e-23
1.666992708e-23
1.667693401e-23
1.668078569e-23
1.66629541e-23
1.66700166e-23
1.668944328e-23
1.664909575e-23
1.66596469e-23
1.66548963e-23
1.66599245e-23
1.663444349e-23
1.664172703e-23
1.663871202e-23
1.664348658e-23
1.665652397e-23
1.665854165e-23
1.664930819e-23
1.66764558e-23
1.665566339e-23
1.666602639e-23
1.667036423e-23
1.669102348e-23
1.668336574e-23
1.666474141e-23
1.667389802e-23
1.667575493e-23
1.665827653e-23
1.665830307e-23
1.666338569e-23
1.666742606e-23
1.665529378e-23
1.666738858e-23
1.666100719e-23
1.665461738e-23
1.667514655e-23
1.667707387e-23
1.665679697e-23
1.667759558e-23
1.666353913e-23
1.666941922e-23
1.663927282e-23
1.664181472e-23
1.663316614e-23
1.665438801e-23
1.664711697e-23
1.663917581e-23
1.664658941e-23
1.666098375e-23
1.66514318e-23
1.663150893e-23
1.665707034e-23
1.665606079e-23
1.665390941e-23
1.665624661e-23
1.665667602e-23
1.665358076e-23
1.66558149e-23
1.66560457e-23
1.666233812e-23
1.665406628e-23
1.665882998e-23
1.665457104e-23
1.665886899e-23
1.665434078e-23
1.665756032e-23
1.665709136e-23
1.665889137e-23
1.665721758e-23
1.666012159e-23
1.665609811e-23
1.665757624e-23
1.665941609e-23
1.665922456e-23
1.665685751e-23
1.665891433e-23
1.66530793e-23
1.66596707e-23
1.665662187e-23
1.665733736e-23
1.665514627e-23
1.664276904e-23
1.66444359e-23
1.664193002e-23
1.663741213e-23
1.664629975e-23
1.664292329e-23
1.664290066e-23
1.663060788e-23
1.664234674e-23
1.665666403e-23
1.664115954e-23
)
;

boundaryField
{
    inlet
    {
        type            fixedValue;
        value           uniform 0;
    }
    outlet
    {
        type            zeroGradient;
    }
    wall
    {
        type            empty;
    }
}


// ************************************************************************* //
