/*--------------------------------*- C++ -*----------------------------------*\
  =========                 |
  \\      /  F ield         | OpenFOAM: The Open Source CFD Toolbox
   \\    /   O peration     | Website:  https://openfoam.org
    \\  /    A nd           | Version:  7
     \\/     M anipulation  |
\*---------------------------------------------------------------------------*/
FoamFile
{
    version     2.0;
    format      ascii;
    class       volScalarField;
    location    "0.000558243009";
    object      C2H3CO;
}
// * * * * * * * * * * * * * * * * * * * * * * * * * * * * * * * * * * * * * //

dimensions      [0 0 0 0 0 0 0];

internalField   nonuniform List<scalar> 
1500
(
1.597060636e-17
6.235170515e-17
1.284938686e-16
1.9247615e-16
2.398579848e-16
2.685692326e-16
2.833640898e-16
2.900045201e-16
2.926447071e-16
2.935870161e-16
2.93892283e-16
2.939828918e-16
2.940077307e-16
2.940140625e-16
2.940155723e-16
2.940159107e-16
2.940159823e-16
2.940159966e-16
2.940159994e-16
2.940159999e-16
2.94016e-16
2.94016e-16
2.94016e-16
2.94016e-16
2.94016e-16
2.94016e-16
2.94016e-16
2.94016e-16
2.94016e-16
2.94016e-16
2.94016e-16
2.94016e-16
2.94016e-16
2.94016e-16
2.94016e-16
2.94016e-16
2.94016e-16
2.94016e-16
2.94016e-16
2.94016e-16
2.94016e-16
2.94016e-16
2.94016e-16
2.94016e-16
2.94016e-16
2.94016e-16
2.94016e-16
2.94016e-16
2.94016e-16
2.94016e-16
2.94016e-16
2.94016e-16
2.94016e-16
2.94016e-16
2.94016e-16
2.94016e-16
2.94016e-16
2.94016e-16
2.94016e-16
2.94016e-16
2.94016e-16
2.94016e-16
2.94016e-16
2.94016e-16
2.94016e-16
2.94016e-16
2.94016e-16
2.94016e-16
2.94016e-16
2.94016e-16
2.94016e-16
2.94016e-16
2.94016e-16
2.94016e-16
2.94016e-16
2.94016e-16
2.94016e-16
2.94016e-16
2.94016e-16
2.94016e-16
2.94016e-16
2.94016e-16
2.94016e-16
2.94016e-16
2.94016e-16
2.94016e-16
2.94016e-16
2.94016e-16
2.94016e-16
2.94016e-16
2.94016e-16
2.94016e-16
2.94016e-16
2.94016e-16
2.94016e-16
2.94016e-16
2.94016e-16
2.94016e-16
2.94016e-16
2.94016e-16
2.94016e-16
2.94016e-16
2.94016e-16
2.94016e-16
2.94016e-16
2.94016e-16
2.94016e-16
2.94016e-16
2.94016e-16
2.94016e-16
2.94016e-16
2.94016e-16
2.94016e-16
2.94016e-16
2.94016e-16
2.94016e-16
2.94016e-16
2.94016e-16
2.94016e-16
2.94016e-16
2.94016e-16
2.94016e-16
2.94016e-16
2.94016e-16
2.94016e-16
2.94016e-16
2.94016e-16
2.94016e-16
2.94016e-16
2.94016e-16
2.94016e-16
2.94016e-16
2.94016e-16
2.94016e-16
2.94016e-16
2.94016e-16
2.94016e-16
2.94016e-16
2.94016e-16
2.94016e-16
2.94016e-16
2.94016e-16
2.94016e-16
2.94016e-16
2.94016e-16
2.94016e-16
2.94016e-16
2.94016e-16
2.94016e-16
2.94016e-16
2.94016e-16
2.94016e-16
2.94016e-16
2.94016e-16
2.94016e-16
2.94016e-16
2.94016e-16
2.94016e-16
2.94016e-16
2.94016e-16
2.94016e-16
2.94016e-16
2.94016e-16
2.94016e-16
2.94016e-16
2.94016e-16
2.94016e-16
2.94016e-16
2.94016e-16
2.94016e-16
2.94016e-16
2.94016e-16
2.94016e-16
2.94016e-16
2.94016e-16
2.94016e-16
2.94016e-16
2.94016e-16
2.94016e-16
2.94016e-16
2.94016e-16
2.94016e-16
2.94016e-16
2.94016e-16
2.94016e-16
2.94016e-16
2.94016e-16
2.94016e-16
2.94016e-16
2.94016e-16
2.94016e-16
2.94016e-16
2.94016e-16
2.94016e-16
2.94016e-16
2.94016e-16
2.94016e-16
2.94016e-16
2.94016e-16
2.94016e-16
2.94016e-16
2.94016e-16
2.94016e-16
2.94016e-16
2.94016e-16
2.94016e-16
2.94016e-16
2.94016e-16
2.94016e-16
2.94016e-16
2.94016e-16
2.94016e-16
2.94016e-16
2.94016e-16
2.94016e-16
2.94016e-16
2.94016e-16
2.94016e-16
2.94016e-16
2.94016e-16
2.94016e-16
2.94016e-16
2.94016e-16
2.94016e-16
2.94016e-16
2.94016e-16
2.94016e-16
2.94016e-16
2.94016e-16
2.94016e-16
2.94016e-16
2.94016e-16
2.94016e-16
2.94016e-16
2.94016e-16
2.94016e-16
2.940160001e-16
2.940160003e-16
2.940160014e-16
2.940160054e-16
2.940160205e-16
2.940160737e-16
2.94016249e-16
2.94016786e-16
2.940183087e-16
2.940222762e-16
2.940316727e-16
2.940515249e-16
2.940875213e-16
2.941379657e-16
2.941543414e-16
2.94159417e-16
2.941646898e-16
2.941701707e-16
2.941758674e-16
2.941817877e-16
2.941879403e-16
2.941943348e-16
2.942009813e-16
2.942078908e-16
2.942150747e-16
2.942225452e-16
2.942303146e-16
2.942383963e-16
2.94246804e-16
2.942555521e-16
2.94264656e-16
2.942741317e-16
2.94283996e-16
2.942942666e-16
2.943049621e-16
2.943161022e-16
2.943277075e-16
2.943397998e-16
2.943524019e-16
2.943655381e-16
2.943792338e-16
2.943935158e-16
2.944084124e-16
2.944239536e-16
2.944401709e-16
2.944570976e-16
2.944747688e-16
2.944932217e-16
2.945124957e-16
2.945326321e-16
2.945536749e-16
2.945756704e-16
2.945986678e-16
2.94622719e-16
2.946478789e-16
2.946742056e-16
2.947017607e-16
2.947306094e-16
2.947608206e-16
2.947924675e-16
2.948256275e-16
2.948603824e-16
2.948968192e-16
2.949350298e-16
2.949751118e-16
2.950171684e-16
2.950613091e-16
2.951076498e-16
2.951563133e-16
2.952074299e-16
2.952611375e-16
2.953175823e-16
2.953769191e-16
2.95439312e-16
2.955049347e-16
2.955739713e-16
2.956466166e-16
2.957230772e-16
2.958035717e-16
2.958883313e-16
2.959776009e-16
2.960716399e-16
2.961707224e-16
2.962751386e-16
2.963851953e-16
2.965012169e-16
2.966235465e-16
2.967525467e-16
2.968886005e-16
2.970321125e-16
2.971835102e-16
2.973432446e-16
2.975117921e-16
2.97689655e-16
2.978773633e-16
2.980754757e-16
2.982845814e-16
2.985053011e-16
2.987382884e-16
2.989842318e-16
2.99243856e-16
2.995179233e-16
2.998072356e-16
3.001126359e-16
3.004350104e-16
3.007752897e-16
3.011344511e-16
3.015135207e-16
3.019135746e-16
3.023357416e-16
3.02781205e-16
3.032512045e-16
3.037470385e-16
3.042700663e-16
3.048217101e-16
3.054034573e-16
3.060168628e-16
3.066635512e-16
3.073452192e-16
3.080636378e-16
3.088206547e-16
3.096181965e-16
3.104582714e-16
3.113429713e-16
3.122744741e-16
3.132550463e-16
3.142870451e-16
3.153729212e-16
3.165152202e-16
3.177165859e-16
3.189797619e-16
3.20307594e-16
3.217030326e-16
3.231691342e-16
3.247090641e-16
3.263260981e-16
3.280236244e-16
3.298051453e-16
3.316742793e-16
3.336347624e-16
3.356904497e-16
3.378453171e-16
3.401034622e-16
3.424691057e-16
3.449465923e-16
3.475403917e-16
3.502550995e-16
3.530954372e-16
3.560662532e-16
3.591725228e-16
3.624193482e-16
3.658119582e-16
3.693557084e-16
3.7305608e-16
3.769186794e-16
3.809492371e-16
3.851536066e-16
3.895377628e-16
3.941078005e-16
3.988699323e-16
4.038304868e-16
4.089959056e-16
4.143727414e-16
4.199676546e-16
4.257874103e-16
4.318388748e-16
4.381290122e-16
4.446648805e-16
4.514536272e-16
4.58502485e-16
4.658187675e-16
4.734098637e-16
4.812832338e-16
4.894464029e-16
4.979069563e-16
5.066725332e-16
5.157508211e-16
5.251495496e-16
5.348764837e-16
5.449394182e-16
5.553461701e-16
5.661045725e-16
5.772224676e-16
5.887076996e-16
6.005681075e-16
6.128115186e-16
6.254457404e-16
6.384785542e-16
6.519177076e-16
6.657709073e-16
6.80045812e-16
6.947500252e-16
7.098910888e-16
7.254764754e-16
7.415135825e-16
7.580097254e-16
7.749721311e-16
7.924079324e-16
8.103241621e-16
8.287277474e-16
8.476255048e-16
8.670241358e-16
8.86930222e-16
9.073502216e-16
9.282904658e-16
9.497571563e-16
9.717563624e-16
9.942940199e-16
1.01737593e-15
1.041007757e-15
1.065195033e-15
1.089943154e-15
1.115257385e-15
1.14114286e-15
1.167604589e-15
1.194647459e-15
1.222276241e-15
1.250495597e-15
1.279310086e-15
1.308724172e-15
1.338742235e-15
1.369368582e-15
1.400607455e-15
1.432463052e-15
1.46493953e-15
1.498041031e-15
1.531771693e-15
1.56613567e-15
1.601137152e-15
1.636780386e-15
1.673069696e-15
1.710009513e-15
1.747604394e-15
1.785859053e-15
1.824778391e-15
1.864367521e-15
1.904631806e-15
1.945576891e-15
1.987208736e-15
2.02953366e-15
2.072558371e-15
2.116290016e-15
2.160736217e-15
2.205905121e-15
2.251805445e-15
2.298446523e-15
2.345838361e-15
2.393991684e-15
2.442917996e-15
2.492629637e-15
2.543139837e-15
2.594462783e-15
2.646613681e-15
2.699608819e-15
2.753465638e-15
2.8082028e-15
2.863840264e-15
2.920399358e-15
2.977902857e-15
3.036375062e-15
3.095841884e-15
3.15633093e-15
3.217871585e-15
3.280495106e-15
3.344234716e-15
3.409125695e-15
3.475205481e-15
3.54251377e-15
3.611092619e-15
3.680986554e-15
3.752242682e-15
3.824910796e-15
3.899043502e-15
3.97469633e-15
4.051927862e-15
4.13079986e-15
4.211377401e-15
4.293728994e-15
4.377926756e-15
4.464046532e-15
4.552168019e-15
4.642374944e-15
4.734755211e-15
4.829401072e-15
4.926409289e-15
5.025881311e-15
5.127923442e-15
5.232647022e-15
5.340168611e-15
5.450610177e-15
5.56409929e-15
5.680769325e-15
5.800759652e-15
5.924215885e-15
6.0512901e-15
6.182141076e-15
6.316934529e-15
6.455843401e-15
6.59904812e-15
6.746736849e-15
6.899105775e-15
7.056359419e-15
7.218710956e-15
7.386382551e-15
7.559605707e-15
7.738621636e-15
7.923681645e-15
8.115047551e-15
8.312992122e-15
8.517799539e-15
8.729765905e-15
8.949199776e-15
9.176422747e-15
9.411770078e-15
9.655591382e-15
9.908251372e-15
1.017013069e-14
1.04416268e-14
1.072315506e-14
1.101514976e-14
1.131806549e-14
1.163237854e-14
1.195858854e-14
1.229722036e-14
1.264882625e-14
1.301398831e-14
1.339332145e-14
1.378747668e-14
1.419714512e-14
1.462306259e-14
1.50660151e-14
1.552684525e-14
1.600645995e-14
1.650583947e-14
1.702604823e-14
1.756824778e-14
1.81337122e-14
1.872384656e-14
1.934020908e-14
1.998453771e-14
2.065878204e-14
2.136514165e-14
2.210611234e-14
2.288454166e-14
2.37036959e-14
2.45673408e-14
2.547983884e-14
2.644626663e-14
2.74725565e-14
2.856566741e-14
2.973379123e-14
3.098660178e-14
3.23355556e-14
3.379425506e-14
3.537888707e-14
3.710875285e-14
3.900690798e-14
4.110093553e-14
4.342388012e-14
4.601537641e-14
4.892301241e-14
5.220397669e-14
5.592704853e-14
6.017500235e-14
6.50475128e-14
7.066466464e-14
7.717119326e-14
8.474160797e-14
9.358638154e-14
1.03959428e-13
1.161671361e-13
1.30579283e-13
1.476422169e-13
1.678947826e-13
1.91987558e-13
2.207060894e-13
2.549989568e-13
2.960116701e-13
3.451276074e-13
4.040174544e-13
4.746989083e-13
5.596087723e-13
6.616900067e-13
7.844968327e-13
9.323216232e-13
1.110348083e-12
1.324836153e-12
1.583345176e-12
1.895003235e-12
2.270832145e-12
2.724139586e-12
3.270992149e-12
3.930785918e-12
4.726934577e-12
5.687699083e-12
6.847187829e-12
8.246562017e-12
9.935488004e-12
1.197388666e-11
1.443403985e-11
1.740312592e-11
2.098627042e-11
2.531021506e-11
3.052772784e-11
3.682290125e-11
4.44175131e-11
5.357865787e-11
6.462789492e-11
7.795220529e-11
9.40171016e-11
1.133822965e-10
1.367204057e-10
1.648392416e-10
1.98708345e-10
2.394905062e-10
2.88579137e-10
3.476424842e-10
4.186758062e-10
5.040627746e-10
6.066475088e-10
7.298187875e-10
8.776081121e-10
1.054803397e-09
1.267080132e-09
1.521151865e-09
1.824941777e-09
2.18777696e-09
2.620606664e-09
3.136245318e-09
3.74964045e-09
4.478164722e-09
5.341930177e-09
6.364121433e-09
7.571342992e-09
8.993974149e-09
1.066652321e-08
1.262797109e-08
1.492209294e-08
1.75977454e-08
2.07091069e-08
2.431585854e-08
2.848329451e-08
3.328235306e-08
3.878956164e-08
4.508689324e-08
5.226153388e-08
6.040556412e-08
6.961555764e-08
7.999209752e-08
9.163920086e-08
1.046636222e-07
1.19173968e-07
1.352794896e-07
1.530883267e-07
1.727048096e-07
1.942252418e-07
2.177312861e-07
2.432797591e-07
2.708872865e-07
3.005080326e-07
3.320028087e-07
3.650887687e-07
3.9933702e-07
4.339945469e-07
4.682323032e-07
5.007108171e-07
5.298129775e-07
5.532324035e-07
5.696109147e-07
5.775294095e-07
5.760179947e-07
5.645380015e-07
5.428765784e-07
5.116237135e-07
4.723257232e-07
4.28449012e-07
3.85123215e-07
3.471576476e-07
3.169913315e-07
2.960779475e-07
2.829372669e-07
2.758369757e-07
2.728122339e-07
2.721063743e-07
2.722656549e-07
2.72406705e-07
2.727528231e-07
2.722399584e-07
2.699703615e-07
2.652184475e-07
2.574847465e-07
2.464890683e-07
2.32391296e-07
2.156128291e-07
1.970682192e-07
1.773330656e-07
1.574708259e-07
1.380923441e-07
1.197509793e-07
1.028328338e-07
8.755891957e-08
7.385689143e-08
6.177997145e-08
5.136784017e-08
4.249471143e-08
3.501001899e-08
2.874679779e-08
2.353682049e-08
1.92265519e-08
1.567676069e-08
1.276289893e-08
1.042713978e-08
8.518025936e-09
6.939121096e-09
5.656563579e-09
4.615072417e-09
3.769063107e-09
3.081422729e-09
2.522091219e-09
2.067322089e-09
1.696412876e-09
1.393988962e-09
1.147165304e-09
9.455038275e-10
7.805474294e-10
6.454432856e-10
5.346376983e-10
4.436286929e-10
3.687654576e-10
3.070858545e-10
2.561848853e-10
2.141082974e-10
1.792665887e-10
1.503655365e-10
1.263500954e-10
1.063590876e-10
8.96886213e-11
7.576253456e-11
6.410850769e-11
5.433874639e-11
4.613434735e-11
3.923263286e-11
3.341687992e-11
2.850798157e-11
2.435766865e-11
2.084299277e-11
1.786182953e-11
1.532920816e-11
1.317431127e-11
1.133801851e-11
9.770892612e-12
8.431525379e-12
7.285177206e-12
6.302656235e-12
5.459393444e-12
4.734678175e-12
4.111025266e-12
3.573650277e-12
3.110033653e-12
2.709558175e-12
2.363206892e-12
2.063311058e-12
1.803339464e-12
1.577722089e-12
1.381702275e-12
1.211212604e-12
1.062770535e-12
9.333905263e-13
8.20509928e-13
7.219264035e-13
6.357450087e-13
5.603333796e-13
4.94283733e-13
4.363806038e-13
3.855734147e-13
3.409531259e-13
3.017323337e-13
2.672282851e-13
2.368483661e-13
2.100776873e-13
1.864684511e-13
1.656308349e-13
1.472251654e-13
1.309551926e-13
1.165623042e-13
1.038205424e-13
9.253230782e-14
8.252465177e-14
7.364607329e-14
6.576374923e-14
5.876113661e-14
5.253589521e-14
4.699808592e-14
4.20686068e-14
3.767783423e-14
3.376444127e-14
3.027436911e-14
2.715993109e-14
2.437903152e-14
2.1894484e-14
1.967341611e-14
1.76867491e-14
1.590874272e-14
1.431659685e-14
1.289010244e-14
1.161133549e-14
1.046438857e-14
9.435135054e-15
8.511022057e-15
7.680888246e-15
6.934803622e-15
6.263928418e-15
5.660388781e-15
5.117167166e-15
4.628005631e-15
4.187320467e-15
3.790126777e-15
3.431971817e-15
3.108876021e-15
2.817280818e-15
2.55400241e-15
2.316190817e-15
2.101293565e-15
1.907023464e-15
1.731330012e-15
1.572373992e-15
1.428504897e-15
1.298240853e-15
1.180250759e-15
1.073338387e-15
9.76428222e-16
8.885528378e-16
8.088416452e-16
7.36510853e-16
6.708545062e-16
6.112364836e-16
5.570833467e-16
5.078779487e-16
4.631537158e-16
4.224895322e-16
3.855051593e-16
3.518571332e-16
3.212350881e-16
2.933584595e-16
2.679735284e-16
2.448507671e-16
2.237824572e-16
2.045805502e-16
1.870747445e-16
1.71110757e-16
1.565487682e-16
1.43262024e-16
1.311355758e-16
1.200651474e-16
1.099561133e-16
1.007225779e-16
9.228654594e-17
8.457717367e-17
7.753009352e-17
7.108680429e-17
6.519412076e-17
5.980367644e-17
5.48714741e-17
5.035747981e-17
4.622525521e-17
4.244162566e-17
3.897637948e-17
3.580199579e-17
3.289339808e-17
3.022773085e-17
2.778415779e-17
2.554367816e-17
2.348896054e-17
2.160419246e-17
1.987494331e-17
1.828804047e-17
1.683145668e-17
1.549420761e-17
1.426625918e-17
1.313844315e-17
1.210238013e-17
1.115041037e-17
1.027552998e-17
9.471333508e-18
8.731961239e-18
8.052051684e-18
7.426698018e-18
6.851408669e-18
6.322071092e-18
5.834919147e-18
5.386503054e-18
4.973662166e-18
4.593500119e-18
4.243362265e-18
3.920814846e-18
3.623626355e-18
3.349750159e-18
3.097308832e-18
2.864579825e-18
2.649982422e-18
2.452065736e-18
2.269497776e-18
2.101055591e-18
1.945615907e-18
1.802147045e-18
1.66970107e-18
1.547407054e-18
1.434464452e-18
1.330137396e-18
1.233749378e-18
1.144678203e-18
1.062351714e-18
9.862435347e-19
9.158693703e-19
8.507835953e-19
7.905760383e-19
7.348692223e-19
6.833155e-19
6.355947733e-19
5.914122322e-19
5.50496339e-19
5.125968947e-19
4.77483405e-19
4.44943387e-19
4.147809859e-19
3.868156736e-19
3.608810033e-19
3.368234878e-19
3.145015364e-19
2.937845415e-19
2.745519265e-19
2.566925324e-19
2.401036761e-19
2.246906514e-19
2.103659952e-19
1.970489669e-19
1.846649586e-19
1.731450302e-19
1.624255975e-19
1.524478333e-19
1.431573668e-19
1.345039636e-19
1.264412034e-19
1.1892618e-19
1.119191588e-19
1.05383441e-19
9.928505801e-20
9.359261463e-20
8.827703312e-20
8.33114129e-20
7.867080248e-20
7.433218132e-20
7.027419869e-20
6.647707231e-20
6.292248338e-20
5.959346938e-20
5.647428222e-20
5.355036775e-20
5.08082118e-20
4.823529785e-20
4.581999628e-20
4.355155523e-20
4.141998312e-20
3.941601613e-20
3.753104314e-20
3.575707141e-20
3.408668506e-20
3.251297192e-20
3.102955555e-20
2.96304894e-20
2.831027671e-20
2.706376751e-20
2.588617572e-20
2.477309412e-20
2.372036903e-20
2.272417783e-20
2.17809352e-20
2.088729891e-20
2.004020891e-20
1.923676858e-20
1.847428822e-20
1.77502612e-20
1.706233871e-20
1.64083761e-20
1.578633889e-20
1.51943237e-20
1.463055213e-20
1.40933813e-20
1.358127716e-20
1.309279689e-20
1.26266042e-20
1.218142732e-20
1.17561001e-20
1.134950397e-20
1.096062016e-20
1.058847863e-20
1.023218492e-20
9.890873798e-21
9.563761421e-21
9.250118421e-21
8.94923335e-21
8.660462182e-21
8.383171164e-21
8.116791019e-21
7.860783673e-21
7.614646943e-21
7.377884359e-21
7.150061115e-21
6.93073368e-21
6.719500035e-21
6.515997086e-21
6.319863897e-21
6.130760835e-21
5.9483723e-21
5.772397561e-21
5.602554971e-21
5.438578318e-21
5.280212725e-21
5.127217713e-21
4.979375746e-21
4.836458307e-21
4.69826888e-21
4.564618483e-21
4.435308121e-21
4.310180965e-21
4.189064826e-21
4.07180532e-21
3.95824959e-21
3.84825945e-21
3.741692335e-21
3.638425436e-21
3.538331574e-21
3.441293929e-21
3.347204854e-21
3.255959296e-21
3.167461405e-21
3.081603752e-21
2.998296967e-21
2.917442541e-21
2.838970858e-21
2.762796323e-21
2.688839745e-21
2.61702686e-21
2.547286265e-21
2.479543914e-21
2.413740998e-21
2.349816018e-21
2.287708817e-21
2.227350331e-21
2.16869289e-21
2.111671786e-21
2.056245436e-21
2.002360224e-21
1.949971595e-21
1.899033592e-21
1.849498807e-21
1.8013267e-21
1.754469034e-21
1.708896482e-21
1.664558726e-21
1.621425219e-21
1.579471049e-21
1.538648285e-21
1.498931027e-21
1.460283118e-21
1.422674984e-21
1.386071654e-21
1.350450844e-21
1.315786654e-21
1.282044955e-21
1.249198955e-21
1.217227894e-21
1.186100571e-21
1.155797613e-21
1.126295918e-21
1.097574915e-21
1.069607382e-21
1.042374555e-21
1.015852368e-21
9.900244069e-22
9.648736358e-22
9.403821713e-22
9.165272911e-22
8.932947798e-22
8.706660456e-22
8.486227732e-22
8.271464856e-22
8.062326284e-22
7.858625394e-22
7.66018856e-22
7.466855134e-22
7.278541192e-22
7.095078419e-22
6.916364232e-22
6.742200414e-22
6.572534896e-22
6.407277597e-22
6.246266789e-22
6.089380791e-22
5.936507319e-22
5.787566335e-22
5.642429891e-22
5.501042055e-22
5.363278951e-22
5.229028219e-22
5.098207218e-22
4.970739921e-22
4.846502317e-22
4.725390845e-22
4.607386346e-22
4.492418466e-22
4.380408918e-22
4.271207036e-22
4.164802161e-22
4.06110757e-22
3.960027308e-22
3.861461914e-22
3.765427531e-22
3.67179382e-22
3.580525749e-22
3.491554163e-22
3.404819785e-22
3.320260626e-22
3.237832493e-22
3.157470825e-22
3.07913463e-22
3.002756722e-22
2.928259518e-22
2.85563755e-22
2.784853827e-22
2.715860726e-22
2.648572891e-22
2.582984055e-22
2.519045899e-22
2.456711165e-22
2.395923611e-22
2.33667353e-22
2.278891995e-22
2.222536898e-22
2.167647108e-22
2.114133687e-22
2.061959163e-22
2.011088762e-22
1.961464157e-22
1.913069722e-22
1.865873622e-22
1.819847954e-22
1.774999953e-22
1.731304857e-22
1.688696387e-22
1.647131887e-22
1.606603661e-22
1.567074025e-22
1.528531359e-22
1.49094342e-22
1.454289723e-22
1.418566412e-22
1.383726894e-22
1.349749979e-22
1.316589253e-22
1.28425593e-22
1.252723809e-22
1.221997488e-22
1.192034381e-22
1.162826597e-22
1.134339473e-22
1.106567708e-22
1.079466222e-22
1.053055277e-22
1.027265879e-22
1.002109994e-22
9.775809764e-23
9.536418863e-23
9.302660199e-23
9.074672033e-23
8.852189306e-23
8.635254209e-23
8.42386961e-23
8.217702379e-23
8.01641651e-23
7.820241854e-23
7.629021222e-23
7.442374758e-23
7.260254006e-23
7.08252521e-23
6.909103347e-23
6.739842401e-23
6.574714628e-23
6.41338695e-23
6.256034172e-23
6.102654607e-23
5.952753705e-23
5.806493447e-23
5.663602131e-23
5.524012568e-23
5.387901713e-23
5.254897118e-23
5.12494359e-23
4.998175767e-23
4.874249368e-23
4.753147684e-23
4.634694695e-23
4.518788601e-23
4.405654669e-23
4.294920581e-23
4.186677754e-23
4.080649887e-23
3.976847548e-23
3.875324189e-23
3.775828716e-23
3.678187757e-23
3.582503374e-23
3.488620299e-23
3.396335045e-23
2.659269139e-23
1.887625735e-23
1.341987703e-23
9.5611947e-24
6.795015336e-24
4.837701385e-24
3.439299261e-24
2.432547888e-24
1.711354621e-24
1.202182063e-24
8.586089111e-25
6.068191311e-25
4.289097009e-25
2.985655397e-25
2.176333096e-25
1.579893876e-25
1.053733853e-25
7.54908557e-26
5.283480967e-26
3.798396846e-26
3.161335387e-26
2.004381962e-26
1.13199683e-26
9.795154217e-27
6.530365648e-27
5.134501222e-27
3.348118754e-27
2.640774946e-27
1.743888035e-27
1.16545221e-27
6.527027272e-28
6.71034895e-28
4.67480999e-28
3.181711907e-28
5.517152634e-28
4.530267227e-28
2.36637854e-28
1.901135669e-28
1.699656075e-28
2.526779736e-29
3.09113571e-28
1.746095643e-28
5.914906268e-28
1.173062678e-27
1.252092122e-27
7.108270134e-28
3.165549808e-29
9.510072986e-28
0
7.412543362e-29
5.868861374e-28
7.451305597e-28
2.46142279e-29
1.261555172e-28
5.114539019e-28
1.539638144e-27
1.292656694e-27
7.686366793e-28
7.770058859e-28
1.196666714e-28
5.557182054e-28
2.385138495e-28
2.558780048e-28
2.007029192e-28
1.543377538e-28
1.08645386e-28
1.753239084e-28
1.96496956e-28
1.71178825e-28
2.196472619e-28
1.670202149e-28
2.124874185e-28
3.169287443e-28
3.752701005e-28
6.804987276e-28
4.053418537e-28
3.784297318e-28
4.706143899e-28
2.963367723e-28
3.328934918e-28
2.34842111e-28
2.088422082e-28
2.212490296e-28
5.060909375e-28
3.011762847e-28
1.968449077e-28
2.062771316e-28
2.01837075e-28
2.157756887e-28
2.390419361e-28
2.451644113e-28
2.198147609e-28
2.025705056e-28
1.862940983e-28
2.078963821e-28
2.044057073e-28
2.020151612e-28
2.132057499e-28
2.075474325e-28
2.088180024e-28
2.042641391e-28
2.1289091e-28
2.133783141e-28
2.111542685e-28
2.100153023e-28
2.067485393e-28
2.103700282e-28
2.137424624e-28
2.085604335e-28
2.046619068e-28
2.094505189e-28
2.078306606e-28
2.060365701e-28
2.079039624e-28
2.102404475e-28
2.101944538e-28
2.132169857e-28
2.094052641e-28
2.112789839e-28
2.129453272e-28
2.079403976e-28
2.116875842e-28
2.123759296e-28
2.069770265e-28
2.103843167e-28
2.066549435e-28
2.097437087e-28
2.064165277e-28
2.126595543e-28
2.093891622e-28
2.06495634e-28
2.077744275e-28
2.064702755e-28
2.059255952e-28
2.193342635e-28
2.155652046e-28
2.142280177e-28
2.154725042e-28
2.219084216e-28
2.090534e-28
2.077662396e-28
2.057501203e-28
2.166455363e-28
2.069593072e-28
2.097103983e-28
2.123413138e-28
2.070766824e-28
2.103329405e-28
2.097789225e-28
2.083143969e-28
2.130221372e-28
2.11569713e-28
2.172722804e-28
2.122707114e-28
2.122153682e-28
2.158543045e-28
2.067643003e-28
2.206785877e-28
2.108842229e-28
2.147202697e-28
2.197368205e-28
2.106730816e-28
2.080494717e-28
2.106967498e-28
2.179552285e-28
2.085853622e-28
2.065182084e-28
2.060464288e-28
2.082582301e-28
2.068810615e-28
2.062569415e-28
2.058159312e-28
2.042665917e-28
2.074331129e-28
2.085549157e-28
2.106932838e-28
2.165828973e-28
2.148828845e-28
2.099933206e-28
2.132003754e-28
2.163286179e-28
2.184419286e-28
2.117696717e-28
2.126698847e-28
2.131345753e-28
2.087368367e-28
2.066693853e-28
2.130191175e-28
2.130144873e-28
2.056574448e-28
2.091015825e-28
2.113888407e-28
2.061431914e-28
2.135393852e-28
2.125924129e-28
2.076762447e-28
2.210529831e-28
2.133561733e-28
2.162353153e-28
2.053510619e-28
2.035494023e-28
2.047182813e-28
2.108586202e-28
2.070707981e-28
2.052642659e-28
2.096666473e-28
2.128630726e-28
2.063673839e-28
2.013581945e-28
2.134532655e-28
2.062222401e-28
2.076446535e-28
2.056700827e-28
2.063459761e-28
2.08026488e-28
2.069453949e-28
2.064496575e-28
2.129476295e-28
2.074368319e-28
2.065402219e-28
2.06914324e-28
2.112180148e-28
2.079134024e-28
2.097361778e-28
2.108109194e-28
2.063702331e-28
2.060735174e-28
2.110782195e-28
2.07739334e-28
2.074186824e-28
2.097734386e-28
2.114708087e-28
2.058252302e-28
2.0807326e-28
2.049219946e-28
2.100974009e-28
2.14500193e-28
2.095110576e-28
2.083709012e-28
2.034353313e-28
2.061779419e-28
2.040422196e-28
2.022362822e-28
2.089317145e-28
2.038949632e-28
2.032181926e-28
2.025981025e-28
2.144094111e-28
2.080625893e-28
2.041680328e-28
)
;

boundaryField
{
    inlet
    {
        type            fixedValue;
        value           uniform 0;
    }
    outlet
    {
        type            zeroGradient;
    }
    wall
    {
        type            empty;
    }
}


// ************************************************************************* //
