/*--------------------------------*- C++ -*----------------------------------*\
  =========                 |
  \\      /  F ield         | OpenFOAM: The Open Source CFD Toolbox
   \\    /   O peration     | Website:  https://openfoam.org
    \\  /    A nd           | Version:  7
     \\/     M anipulation  |
\*---------------------------------------------------------------------------*/
FoamFile
{
    version     2.0;
    format      ascii;
    class       volScalarField;
    location    "0.000558243009";
    object      C2H3CHO_0;
}
// * * * * * * * * * * * * * * * * * * * * * * * * * * * * * * * * * * * * * //

dimensions      [0 0 0 0 0 0 0];

internalField   nonuniform List<scalar> 
1500
(
1.402594967e-15
5.466302608e-15
1.125104094e-14
1.681830912e-14
2.091309101e-14
2.337503751e-14
2.463301658e-14
2.519265708e-14
2.541313362e-14
2.549108653e-14
2.55160985e-14
2.552345042e-14
2.552544601e-14
2.552594966e-14
2.552606854e-14
2.552609491e-14
2.552610044e-14
2.552610154e-14
2.552610174e-14
2.552610178e-14
2.552610179e-14
2.552610179e-14
2.552610179e-14
2.552610179e-14
2.552610179e-14
2.552610179e-14
2.552610179e-14
2.552610179e-14
2.552610179e-14
2.552610179e-14
2.552610179e-14
2.552610179e-14
2.552610179e-14
2.552610179e-14
2.552610179e-14
2.552610179e-14
2.552610179e-14
2.552610179e-14
2.552610179e-14
2.552610179e-14
2.552610179e-14
2.552610179e-14
2.552610179e-14
2.552610179e-14
2.552610179e-14
2.552610179e-14
2.552610179e-14
2.552610179e-14
2.552610179e-14
2.552610179e-14
2.552610179e-14
2.552610179e-14
2.552610179e-14
2.552610179e-14
2.552610179e-14
2.552610179e-14
2.552610179e-14
2.552610179e-14
2.552610179e-14
2.552610179e-14
2.552610179e-14
2.552610179e-14
2.552610179e-14
2.552610179e-14
2.552610179e-14
2.552610179e-14
2.552610179e-14
2.552610179e-14
2.552610179e-14
2.552610179e-14
2.552610179e-14
2.552610179e-14
2.552610179e-14
2.552610179e-14
2.552610179e-14
2.552610179e-14
2.552610179e-14
2.552610179e-14
2.552610179e-14
2.552610179e-14
2.552610179e-14
2.552610179e-14
2.552610179e-14
2.552610179e-14
2.552610179e-14
2.552610179e-14
2.552610179e-14
2.552610179e-14
2.552610179e-14
2.552610179e-14
2.552610179e-14
2.552610179e-14
2.552610179e-14
2.552610179e-14
2.552610179e-14
2.552610179e-14
2.552610179e-14
2.552610179e-14
2.552610179e-14
2.552610179e-14
2.552610179e-14
2.552610179e-14
2.552610179e-14
2.552610179e-14
2.552610179e-14
2.552610179e-14
2.552610179e-14
2.552610179e-14
2.552610179e-14
2.552610179e-14
2.552610179e-14
2.552610179e-14
2.552610179e-14
2.552610179e-14
2.552610179e-14
2.552610179e-14
2.552610179e-14
2.552610179e-14
2.552610179e-14
2.552610179e-14
2.552610179e-14
2.552610179e-14
2.552610179e-14
2.552610179e-14
2.552610179e-14
2.552610179e-14
2.552610179e-14
2.552610179e-14
2.552610179e-14
2.552610179e-14
2.552610179e-14
2.552610179e-14
2.552610179e-14
2.552610179e-14
2.552610179e-14
2.552610179e-14
2.552610179e-14
2.552610179e-14
2.552610179e-14
2.552610179e-14
2.552610179e-14
2.552610179e-14
2.552610179e-14
2.552610179e-14
2.552610179e-14
2.552610179e-14
2.552610179e-14
2.552610179e-14
2.552610179e-14
2.552610179e-14
2.552610179e-14
2.552610179e-14
2.552610179e-14
2.552610179e-14
2.552610179e-14
2.552610179e-14
2.552610179e-14
2.552610179e-14
2.552610179e-14
2.552610179e-14
2.552610179e-14
2.552610179e-14
2.552610179e-14
2.552610179e-14
2.552610179e-14
2.552610179e-14
2.552610179e-14
2.552610179e-14
2.552610179e-14
2.552610179e-14
2.552610179e-14
2.552610179e-14
2.552610179e-14
2.552610179e-14
2.552610179e-14
2.552610179e-14
2.552610179e-14
2.552610179e-14
2.552610179e-14
2.552610179e-14
2.552610179e-14
2.552610179e-14
2.552610179e-14
2.552610179e-14
2.552610179e-14
2.552610179e-14
2.552610179e-14
2.552610179e-14
2.552610179e-14
2.552610179e-14
2.552610179e-14
2.552610179e-14
2.552610179e-14
2.552610179e-14
2.552610179e-14
2.552610179e-14
2.552610179e-14
2.552610179e-14
2.552610179e-14
2.552610179e-14
2.552610179e-14
2.552610179e-14
2.552610179e-14
2.552610179e-14
2.552610179e-14
2.552610179e-14
2.552610179e-14
2.552610179e-14
2.552610179e-14
2.552610179e-14
2.552610179e-14
2.552610179e-14
2.552610179e-14
2.552610179e-14
2.552610179e-14
2.552610179e-14
2.552610179e-14
2.552610179e-14
2.552610179e-14
2.552610179e-14
2.552610179e-14
2.552610179e-14
2.552610179e-14
2.552610179e-14
2.552610179e-14
2.552610179e-14
2.552610179e-14
2.552610179e-14
2.552610179e-14
2.552610179e-14
2.552610179e-14
2.552610179e-14
2.552610179e-14
2.552610179e-14
2.552610179e-14
2.552610179e-14
2.552610179e-14
2.55261018e-14
2.552610182e-14
2.552610191e-14
2.55261023e-14
2.552610382e-14
2.552610952e-14
2.552612927e-14
2.552619233e-14
2.552637623e-14
2.552686021e-14
2.552798669e-14
2.553021022e-14
2.553351945e-14
2.553445175e-14
2.553477147e-14
2.553510416e-14
2.553545036e-14
2.553581052e-14
2.553618512e-14
2.553657473e-14
2.553697997e-14
2.55374015e-14
2.553784003e-14
2.553829628e-14
2.553877103e-14
2.553926505e-14
2.553977919e-14
2.55403143e-14
2.554087131e-14
2.554145116e-14
2.554205486e-14
2.554268344e-14
2.554333801e-14
2.554401973e-14
2.554472978e-14
2.554546946e-14
2.554624007e-14
2.554704303e-14
2.554787979e-14
2.55487519e-14
2.554966098e-14
2.555060873e-14
2.555159695e-14
2.55526275e-14
2.555370239e-14
2.55548237e-14
2.555599362e-14
2.555721448e-14
2.555848871e-14
2.55598189e-14
2.556120775e-14
2.556265815e-14
2.556417311e-14
2.556575582e-14
2.556740968e-14
2.556913824e-14
2.557094529e-14
2.55728348e-14
2.557481101e-14
2.557687839e-14
2.557904165e-14
2.558130583e-14
2.558367622e-14
2.558615845e-14
2.55887585e-14
2.559148268e-14
2.55943377e-14
2.55973307e-14
2.560046921e-14
2.560376128e-14
2.560721541e-14
2.561084066e-14
2.561464663e-14
2.561864355e-14
2.562284226e-14
2.56272543e-14
2.563189193e-14
2.563676819e-14
2.564189694e-14
2.564729292e-14
2.56529718e-14
2.565895026e-14
2.5665246e-14
2.56718779e-14
2.5678866e-14
2.568623162e-14
2.569399743e-14
2.570218755e-14
2.571082761e-14
2.571994486e-14
2.57295683e-14
2.57397287e-14
2.575045881e-14
2.57617934e-14
2.577376942e-14
2.578642612e-14
2.579980518e-14
2.581395084e-14
2.582891008e-14
2.584473273e-14
2.586147167e-14
2.587918298e-14
2.589792611e-14
2.591776408e-14
2.593876366e-14
2.596099556e-14
2.598453466e-14
2.600946022e-14
2.603585608e-14
2.606381091e-14
2.609341846e-14
2.612477777e-14
2.615799348e-14
2.619317605e-14
2.623044205e-14
2.626991444e-14
2.631172285e-14
2.63560039e-14
2.640290147e-14
2.645256705e-14
2.650516002e-14
2.656084801e-14
2.661980721e-14
2.66822227e-14
2.674828885e-14
2.681820958e-14
2.689219879e-14
2.697048069e-14
2.705329014e-14
2.714087305e-14
2.723348673e-14
2.733140024e-14
2.743489481e-14
2.754426412e-14
2.765981475e-14
2.778186649e-14
2.791075273e-14
2.804682079e-14
2.819043226e-14
2.834196339e-14
2.850180537e-14
2.867036467e-14
2.884806336e-14
2.90353394e-14
2.923264692e-14
2.944045651e-14
2.965925544e-14
2.988954792e-14
3.013185533e-14
3.038671635e-14
3.065468719e-14
3.093634172e-14
3.123227158e-14
3.154308628e-14
3.186941324e-14
3.221189786e-14
3.25712035e-14
3.294801143e-14
3.334302081e-14
3.375694851e-14
3.419052905e-14
3.464451435e-14
3.511967355e-14
3.561679274e-14
3.613667464e-14
3.668013828e-14
3.724801856e-14
3.78411659e-14
3.846044566e-14
3.91067377e-14
3.978093577e-14
4.048394688e-14
4.121669068e-14
4.198009873e-14
4.277511376e-14
4.360268886e-14
4.446378666e-14
4.535937844e-14
4.629044321e-14
4.725796674e-14
4.826294059e-14
4.930636102e-14
5.038922797e-14
5.151254391e-14
5.267731274e-14
5.388453861e-14
5.51352247e-14
5.643037207e-14
5.777097835e-14
5.915803655e-14
6.059253377e-14
6.207544993e-14
6.360775649e-14
6.519041515e-14
6.682437662e-14
6.85105793e-14
7.024994803e-14
7.204339285e-14
7.389180778e-14
7.57960696e-14
7.77570367e-14
7.977554792e-14
8.185242147e-14
8.398845388e-14
8.6184419e-14
8.844106703e-14
9.075912371e-14
9.313928941e-14
9.558223846e-14
9.808861848e-14
1.006590498e-13
1.032941248e-13
1.059944081e-13
1.087604353e-13
1.115927138e-13
1.14491722e-13
1.174579099e-13
1.204916988e-13
1.235934819e-13
1.267636247e-13
1.300024654e-13
1.33310316e-13
1.366874628e-13
1.401341678e-13
1.436506694e-13
1.472371844e-13
1.508939092e-13
1.546210216e-13
1.584186826e-13
1.622870387e-13
1.662262243e-13
1.702363637e-13
1.743175745e-13
1.784699701e-13
1.826936629e-13
1.869887678e-13
1.913554057e-13
1.957937074e-13
2.003038174e-13
2.048858989e-13
2.095401374e-13
2.142667465e-13
2.190659721e-13
2.239380984e-13
2.288834531e-13
2.339024135e-13
2.389954125e-13
2.441629452e-13
2.494055753e-13
2.547239426e-13
2.6011877e-13
2.655908711e-13
2.711411582e-13
2.767706506e-13
2.82480483e-13
2.882719145e-13
2.941463378e-13
3.001052885e-13
3.061504553e-13
3.122836899e-13
3.185070177e-13
3.248226487e-13
3.312329886e-13
3.377406508e-13
3.443484678e-13
3.510595039e-13
3.578770679e-13
3.648047262e-13
3.71846316e-13
3.790059597e-13
3.862880785e-13
3.936974079e-13
4.012390119e-13
4.089182994e-13
4.1674104e-13
4.247133812e-13
4.328418625e-13
4.411334399e-13
4.495954979e-13
4.58235866e-13
4.670628418e-13
4.760852089e-13
4.85312258e-13
4.947538073e-13
5.044202234e-13
5.143224433e-13
5.244719959e-13
5.348810244e-13
5.455623091e-13
5.565292914e-13
5.677960979e-13
5.793775625e-13
5.912892567e-13
6.035475144e-13
6.161694613e-13
6.291730411e-13
6.425770497e-13
6.564011653e-13
6.706659751e-13
6.853930084e-13
7.006047729e-13
7.16324789e-13
7.325776267e-13
7.49388943e-13
7.667855216e-13
7.847953136e-13
8.0344748e-13
8.227724363e-13
8.42801899e-13
8.635689336e-13
8.851080061e-13
9.074550352e-13
9.306474485e-13
9.547242405e-13
9.797260339e-13
1.005695144e-12
1.032675648e-12
1.060713453e-12
1.089856374e-12
1.120154215e-12
1.151658852e-12
1.184424322e-12
1.21850692e-12
1.253965303e-12
1.290860597e-12
1.329256518e-12
1.369219494e-12
1.410818812e-12
1.45412676e-12
1.499218798e-12
1.546173742e-12
1.595073961e-12
1.646005611e-12
1.699058893e-12
1.754328339e-12
1.811913158e-12
1.871917618e-12
1.934451504e-12
1.999630654e-12
2.067577591e-12
2.13842228e-12
2.212303039e-12
2.289367641e-12
2.369774644e-12
2.453695033e-12
2.541314218e-12
2.632834502e-12
2.72847813e-12
2.828491062e-12
2.933147656e-12
3.042756507e-12
3.157667703e-12
3.278281898e-12
3.40506164e-12
3.538545542e-12
3.679366019e-12
3.828271504e-12
3.9861543e-12
4.154085494e-12
4.333358757e-12
4.525545302e-12
4.732562862e-12
4.956762281e-12
5.201036224e-12
5.468955693e-12
5.764941454e-12
6.094479339e-12
6.464390653e-12
6.8831718e-12
7.361420878e-12
7.912373477e-12
8.552575689e-12
9.302729402e-12
1.018875402e-11
1.124311993e-11
1.25065233e-11
1.402998945e-11
1.587751428e-11
1.812938156e-11
2.088632831e-11
2.427477534e-11
2.845339455e-11
3.362135425e-11
4.002867053e-11
4.798920167e-11
5.789695889e-11
7.024657824e-11
8.565901244e-11
1.049137704e-10
1.289893682e-10
1.591140764e-10
1.968295761e-10
2.440707936e-10
3.0326601e-10
3.774623696e-10
4.704831989e-10
5.871251528e-10
7.334052056e-10
9.168700036e-10
1.146983197e-09
1.435610243e-09
1.797624955e-09
2.25166806e-09
2.821095373e-09
3.535162346e-09
4.430503023e-09
5.5529753e-09
6.959961468e-09
8.723233939e-09
1.093252158e-08
1.369994328e-08
1.716551299e-08
2.15039662e-08
2.693321245e-08
3.372478385e-08
4.221672689e-08
5.282947627e-08
6.608535507e-08
8.26324682e-08
1.032738947e-07
1.290032397e-07
1.610477781e-07
2.00920601e-07
2.504833694e-07
3.120214583e-07
3.883334515e-07
4.828370823e-07
5.996938048e-07
7.439541843e-07
9.217261968e-07
1.140368278e-06
1.408708539e-06
1.737290944e-06
2.138648371e-06
2.627601416e-06
3.221580484e-06
3.940967263e-06
4.80945016e-06
5.854386763e-06
7.107165123e-06
8.603554662e-06
1.038403702e-05
1.249410722e-05
1.498453627e-05
1.791158743e-05
2.133718016e-05
2.532899744e-05
2.996053408e-05
3.531108521e-05
4.146567505e-05
4.851492695e-05
5.655487444e-05
6.568671531e-05
7.601649787e-05
8.765474323e-05
0.0001007159893
0.0001153182549
0.0001315824357
0.000149631675
0.0001695908186
0.0001915726245
0.0002157355518
0.0002421249135
0.0002710827305
0.0003027303385
0.0003372430184
0.0003736080177
0.0004124309907
0.0004535984159
0.0004968872185
0.000541954504
0.0005883277561
0.0006354484809
0.0006827235448
0.0007295699464
0.0007754545602
0.0008198090775
0.0008630023843
0.0009024166548
0.0009380774595
0.0009689458804
0.0009941677215
0.001011404809
0.00101943328
0.001016642467
0.001001638685
0.0009734632559
0.0009319241085
0.0008778160572
0.0008130529995
0.0007405273817
0.000663721573
0.0005859016976
0.0005108276812
0.0004401773151
0.0003762053056
0.0003192461679
0.0002694128876
0.0002264119182
0.0001897046637
0.0001584008633
0.0001317513498
0.0001094229138
9.080012308e-05
7.531740267e-05
6.247826939e-05
5.185203342e-05
4.306584313e-05
3.580217261e-05
2.979720449e-05
2.490105052e-05
2.083879435e-05
1.743681375e-05
1.46169499e-05
1.227450534e-05
1.032463257e-05
8.698499524e-06
7.340047871e-06
6.203968193e-06
5.251558436e-06
4.452307796e-06
3.780572674e-06
3.215150947e-06
2.738489057e-06
2.336036563e-06
1.99571798e-06
1.707499483e-06
1.463032986e-06
1.255363559e-06
1.078688784e-06
9.281608049e-07
7.997233306e-07
6.899773248e-07
5.96070236e-07
5.156045433e-07
4.46562159e-07
3.872418586e-07
3.362074219e-07
2.922445898e-07
2.543252881e-07
2.215778455e-07
1.932621676e-07
1.687490093e-07
1.475026454e-07
1.290663612e-07
1.130502856e-07
9.912117527e-08
8.699382525e-08
7.642383559e-08
6.720151324e-08
5.914672316e-08
5.21045355e-08
4.594154086e-08
4.05427269e-08
3.580882769e-08
3.16540711e-08
2.800426225e-08
2.479515082e-08
2.197103839e-08
1.948358933e-08
1.729081395e-08
1.535619827e-08
1.364795816e-08
1.213839946e-08
1.08033684e-08
9.621779011e-09
8.575206375e-09
7.647536039e-09
6.824661651e-09
6.094223829e-09
5.445384436e-09
4.868631263e-09
4.355608851e-09
3.898971803e-09
3.492257493e-09
3.12977548e-09
2.806511358e-09
2.518043078e-09
2.260468051e-09
2.030339604e-09
1.824611514e-09
1.640589577e-09
1.475889267e-09
1.328398699e-09
1.196246191e-09
1.077771852e-09
9.715026563e-10
8.76130568e-10
7.904933321e-10
7.135575854e-10
6.444040024e-10
5.822142188e-10
5.262593125e-10
4.758896497e-10
4.305259272e-10
3.896512658e-10
3.528042255e-10
3.195726325e-10
2.895881188e-10
2.625212899e-10
2.380774453e-10
2.159927864e-10
1.960310539e-10
1.779805455e-10
1.61651467e-10
1.46873581e-10
1.334941165e-10
1.213759097e-10
1.103957511e-10
1.004429127e-10
9.141783705e-11
8.323096896e-11
7.580171339e-11
6.905750625e-11
6.293298481e-11
5.7369247e-11
5.231318957e-11
4.771691652e-11
4.353721e-11
3.973505701e-11
3.627522554e-11
3.312588509e-11
3.025826659e-11
2.764635752e-11
2.526662849e-11
2.309778791e-11
2.112056173e-11
1.931749564e-11
1.767277737e-11
1.61720769e-11
1.48024028e-11
1.355197298e-11
1.241009834e-11
1.136707799e-11
1.041410491e-11
9.543180841e-12
8.747039648e-12
8.019078126e-12
7.353293585e-12
6.744227519e-12
6.186914708e-12
5.67683728e-12
5.209883143e-12
4.782308434e-12
4.390703547e-12
4.031962402e-12
3.70325461e-12
3.402000289e-12
3.12584726e-12
2.872650348e-12
2.640452648e-12
2.427468542e-12
2.232068277e-12
2.052763987e-12
1.888196993e-12
1.737126283e-12
1.59841804e-12
1.471036134e-12
1.354033485e-12
1.246544202e-12
1.147776443e-12
1.057005911e-12
9.735699531e-13
8.968621722e-13
8.263275236e-13
7.614578671e-13
7.017878961e-13
6.46891435e-13
5.963780737e-13
5.498900823e-13
5.070996203e-13
4.67706164e-13
4.314341824e-13
3.980310099e-13
3.672648978e-13
3.38923246e-13
3.128109846e-13
2.887490853e-13
2.665732172e-13
2.461325128e-13
2.272884397e-13
2.099137664e-13
1.938916176e-13
1.791146143e-13
1.65484086e-13
1.52909346e-13
1.413070306e-13
1.306004981e-13
1.207192719e-13
1.115985339e-13
1.031786591e-13
9.540479195e-14
8.822645985e-14
8.159720763e-14
7.547427756e-14
6.981830552e-14
6.459305074e-14
5.976513579e-14
5.530381748e-14
5.118077847e-14
4.736992906e-14
4.384723062e-14
4.059052849e-14
3.757940373e-14
3.4795031e-14
3.222005541e-14
2.983847449e-14
2.763552852e-14
2.559760491e-14
2.371214614e-14
2.196756753e-14
2.035317711e-14
1.885911117e-14
1.747626504e-14
1.619623267e-14
1.501125555e-14
1.391416977e-14
1.289835914e-14
1.195771493e-14
1.108659391e-14
1.02797829e-14
9.532466947e-15
8.840195247e-15
8.198857778e-15
7.604653425e-15
7.054071446e-15
6.543864656e-15
6.071032164e-15
5.632799177e-15
5.226599685e-15
4.850060731e-15
4.500987999e-15
4.177351058e-15
3.87727318e-15
3.599016238e-15
3.340973493e-15
3.101657911e-15
2.879693168e-15
2.673805488e-15
2.482815486e-15
2.305631725e-15
2.141243789e-15
1.988716118e-15
1.847182651e-15
1.715841474e-15
1.593950038e-15
1.480820684e-15
1.375815989e-15
1.278345195e-15
1.187861003e-15
1.103856517e-15
1.025863529e-15
9.534466591e-16
8.862023483e-16
8.237567484e-16
7.657641584e-16
7.119033216e-16
6.618755496e-16
6.154049349e-16
5.72236358e-16
5.321322971e-16
4.948732284e-16
4.602548216e-16
4.280881362e-16
3.981975426e-16
3.704199014e-16
3.446039317e-16
3.206106437e-16
2.9830888e-16
2.775783446e-16
2.583071403e-16
2.403916418e-16
2.237355125e-16
2.082486686e-16
1.938485324e-16
1.804579788e-16
1.680054241e-16
1.564246848e-16
1.456534428e-16
1.356346742e-16
1.263155596e-16
1.176466459e-16
1.095820012e-16
1.020790341e-16
9.509801964e-17
8.860209989e-17
8.255767232e-17
7.693268551e-17
7.169788401e-17
6.682550298e-17
6.22903259e-17
5.80687741e-17
5.413871053e-17
5.047998953e-17
4.707386373e-17
4.390192905e-17
4.094848333e-17
3.819816329e-17
3.56367852e-17
3.325112639e-17
3.10290308e-17
2.895886888e-17
2.703049168e-17
2.523388173e-17
2.3560305e-17
2.200078853e-17
2.054761506e-17
1.919298394e-17
1.793032456e-17
1.675319017e-17
1.565588112e-17
1.463321329e-17
1.367958759e-17
1.279049887e-17
1.196106957e-17
1.118736583e-17
1.04659685e-17
9.793127115e-18
9.165354707e-18
8.579678264e-18
8.032949895e-18
7.522854457e-18
7.046764555e-18
6.602254063e-18
6.187254303e-18
5.799873238e-18
5.438009622e-18
5.100148893e-18
4.784503441e-18
4.489348659e-18
4.213584999e-18
3.955835548e-18
3.715206897e-18
3.490295776e-18
3.280079379e-18
3.083406471e-18
2.89940203e-18
2.727086872e-18
2.565972273e-18
2.415296485e-18
2.274397812e-18
2.142429504e-18
2.018926488e-18
1.903335773e-18
1.79525274e-18
1.69396962e-18
1.598847913e-18
1.509699047e-18
1.425955298e-18
1.347711499e-18
1.274450793e-18
1.205666544e-18
1.140992873e-18
1.080232354e-18
1.023013843e-18
9.690398653e-19
9.182066468e-19
8.704635035e-19
8.256002594e-19
7.835377796e-19
7.439437284e-19
7.069745324e-19
6.722305495e-19
6.393857185e-19
6.084465423e-19
5.792712624e-19
5.51707302e-19
5.257333988e-19
5.013177662e-19
4.781735667e-19
4.562116802e-19
4.356564102e-19
4.161711057e-19
3.977992353e-19
3.805295499e-19
3.639765832e-19
3.483702011e-19
3.335405122e-19
3.195689598e-19
3.062284404e-19
2.936352769e-19
2.816904503e-19
2.702182848e-19
2.593614116e-19
2.489922288e-19
2.390623064e-19
2.29726585e-19
2.208797996e-19
2.124032126e-19
2.043716678e-19
1.966617901e-19
1.894031271e-19
1.823930191e-19
1.756302197e-19
1.692930104e-19
1.633068562e-19
1.574834812e-19
1.519805646e-19
1.466690816e-19
1.417412708e-19
1.369967165e-19
1.325940493e-19
1.282884771e-19
1.242434354e-19
1.204593185e-19
1.167655333e-19
1.132218903e-19
1.097110319e-19
1.063135839e-19
1.031113448e-19
1.001961529e-19
9.72784391e-20
9.44509666e-20
9.1891016e-20
8.938258753e-20
8.701178172e-20
8.466340551e-20
8.24055787e-20
8.010213545e-20
7.783524515e-20
7.564360354e-20
7.362186111e-20
7.163796104e-20
6.966183126e-20
6.76946032e-20
6.581309278e-20
6.406228959e-20
6.237350179e-20
6.071791321e-20
5.907201116e-20
5.730674952e-20
5.558052422e-20
5.38962135e-20
5.232224369e-20
5.082658991e-20
4.93718817e-20
4.788297009e-20
4.644705674e-20
4.517390795e-20
4.394022348e-20
4.284065135e-20
4.165268351e-20
4.048405104e-20
3.939030213e-20
3.829045573e-20
3.72427098e-20
3.62547118e-20
3.526744098e-20
3.431749708e-20
3.343996539e-20
3.255705029e-20
3.168054096e-20
3.088684205e-20
3.007765341e-20
2.928223906e-20
2.854067017e-20
2.782753514e-20
2.714197493e-20
2.643793338e-20
2.573314803e-20
2.50930328e-20
2.440719971e-20
2.378380898e-20
2.318868529e-20
2.262294224e-20
2.205086025e-20
2.14619305e-20
2.100250094e-20
2.053401885e-20
1.998103488e-20
1.94602964e-20
1.893363282e-20
1.832998354e-20
1.772482524e-20
1.717180498e-20
1.667583585e-20
1.61471388e-20
1.565537601e-20
1.520795151e-20
1.488618647e-20
1.450475715e-20
1.417403867e-20
1.383091659e-20
1.349056244e-20
1.314336628e-20
1.275992896e-20
1.242180736e-20
1.204734682e-20
1.172862841e-20
1.137333487e-20
1.100768284e-20
1.067939454e-20
1.036710536e-20
1.002386527e-20
9.728189165e-21
9.506360059e-21
9.327929079e-21
9.140112757e-21
8.907206801e-21
8.704674687e-21
8.48615672e-21
8.254235476e-21
8.031795842e-21
7.784501329e-21
7.623995246e-21
7.471691462e-21
7.349099174e-21
7.261797575e-21
7.184158766e-21
7.020370956e-21
6.896657947e-21
6.740897692e-21
6.63274552e-21
5.663021465e-21
4.065545362e-21
2.57563742e-21
2.375998799e-21
1.442787526e-21
1.557056216e-21
1.305274399e-21
6.29949827e-22
1.760349233e-22
5.518009211e-23
1.661478817e-22
1.906135893e-22
2.174921132e-22
2.028443287e-22
2.018805399e-22
3.231721451e-22
7.913728787e-23
6.628008444e-23
1.036276126e-22
6.119499423e-23
2.045020804e-22
1.030605833e-22
9.264278248e-24
2.774472453e-23
3.540876698e-24
3.000540878e-23
1.150450285e-23
2.225685126e-23
1.166963505e-23
9.241347188e-24
4.770535344e-25
6.871568027e-24
3.118294554e-24
2.975032956e-24
1.081597377e-23
1.010267505e-23
4.640963989e-24
2.075963911e-24
1.14624669e-24
1.231304108e-25
5.013686307e-24
4.96355986e-24
2.030733685e-23
3.777199517e-23
3.670413773e-23
1.739189206e-23
1.92892472e-24
2.176975639e-23
2.421850218e-24
1.292861822e-23
1.06550984e-23
1.844911099e-23
7.366009621e-25
6.034090733e-26
2.088044422e-23
5.228759713e-23
4.07696331e-23
1.898242942e-23
2.065929305e-23
2.617584882e-24
1.446501598e-23
6.59045452e-25
3.710779205e-24
5.91474311e-24
2.139385992e-24
0
1.26302462e-24
1.264834819e-24
5.366758209e-25
1.262342701e-24
5.414320784e-26
1.607649963e-24
4.865219765e-24
7.937357835e-24
1.902460062e-23
7.071636059e-24
2.695829469e-24
7.688107556e-24
3.41540105e-24
6.300457769e-24
1.425950862e-24
2.780312492e-27
7.589280626e-26
1.0130199e-23
3.287092031e-24
2.239038073e-25
0
7.68374853e-27
0
6.521286805e-25
1.321170319e-24
5.404085372e-25
3.380559027e-25
1.3229703e-25
1.032226106e-25
5.619495477e-27
2.684656108e-26
4.501186523e-25
4.112141512e-26
8.996713042e-26
8.500682303e-27
7.03376147e-26
2.269037376e-25
7.446408184e-26
4.65872461e-26
4.375308353e-26
2.244888836e-25
3.563790942e-25
1.348563897e-25
1.831451774e-27
5.88771653e-26
5.731897915e-26
1.777856672e-26
5.904580943e-26
1.203730003e-25
1.283567465e-25
2.087476655e-25
1.17607209e-25
1.795238753e-25
2.143667869e-25
3.626876353e-26
2.039036999e-25
1.66964248e-25
8.023244687e-27
1.241553238e-25
2.16709034e-27
1.383164044e-25
2.975564068e-26
2.421293406e-25
1.092828145e-25
1.975105642e-26
7.310795415e-26
1.688850179e-26
5.855903333e-27
4.687380156e-25
3.250917542e-25
3.306557986e-25
3.212271881e-25
5.457447754e-25
8.994624509e-26
1.01045485e-25
1.021614422e-26
3.141239282e-25
2.203643321e-26
1.177774799e-25
2.287040424e-25
9.177429367e-26
1.68235583e-25
5.566966064e-26
5.262821008e-26
1.559848447e-25
1.830858832e-25
3.405843248e-25
3.540850454e-25
2.189613562e-25
4.12125553e-25
1.346430032e-25
5.456924208e-25
1.902028931e-25
2.361708839e-25
3.671558096e-25
3.34531712e-26
1.03040515e-25
1.356930552e-25
2.018113513e-25
1.337191996e-25
3.493927926e-27
4.085460501e-26
8.273407879e-26
2.736956627e-25
6.21550245e-26
1.542910137e-25
0
8.840717581e-26
3.215401482e-26
2.02982868e-25
2.550907638e-25
3.317382707e-25
1.010661366e-25
1.572010144e-25
1.530794205e-25
2.757494121e-25
1.657818028e-25
1.011586429e-25
1.373760425e-25
6.638947652e-26
3.551848662e-26
2.390128392e-25
1.915107341e-25
0
6.792078833e-26
1.938850584e-25
8.387205841e-27
1.431322418e-25
8.750126037e-26
1.126086664e-25
3.803259078e-25
2.549839072e-25
3.29016303e-25
1.105201569e-25
2.253687965e-27
1.287372075e-25
2.138818079e-25
1.375367957e-25
8.208695784e-26
2.105271701e-25
2.237968918e-25
7.912962527e-26
5.047464447e-26
2.571661352e-25
4.738172279e-26
1.14002234e-25
0
4.58545771e-26
1.159759062e-25
7.094439735e-26
3.940560291e-26
2.363875537e-25
1.03468392e-25
2.929196331e-26
8.629907756e-26
1.942269779e-25
1.042676435e-25
1.614418524e-25
1.959097842e-25
1.189866536e-26
8.777701189e-27
1.792713356e-25
7.307489386e-26
6.228807231e-26
1.328802138e-25
1.895430466e-25
1.553969325e-27
7.084920765e-26
0
1.312248579e-25
3.409488425e-25
1.183062196e-25
9.808561079e-26
0
5.93251569e-26
6.079667744e-28
3.077132059e-27
1.874827461e-25
0
0
3.163856168e-26
4.025413807e-25
7.803803609e-26
0
)
;

boundaryField
{
    inlet
    {
        type            fixedValue;
        value           uniform 0;
    }
    outlet
    {
        type            zeroGradient;
    }
    wall
    {
        type            empty;
    }
}


// ************************************************************************* //
