/*--------------------------------*- C++ -*----------------------------------*\
  =========                 |
  \\      /  F ield         | OpenFOAM: The Open Source CFD Toolbox
   \\    /   O peration     | Website:  https://openfoam.org
    \\  /    A nd           | Version:  7
     \\/     M anipulation  |
\*---------------------------------------------------------------------------*/
FoamFile
{
    version     2.0;
    format      ascii;
    class       volScalarField;
    location    "0.000558243009";
    object      C2H4;
}
// * * * * * * * * * * * * * * * * * * * * * * * * * * * * * * * * * * * * * //

dimensions      [0 0 0 0 0 0 0];

internalField   nonuniform List<scalar> 
1500
(
1.297158435e-11
5.074495707e-11
1.047546795e-10
1.575908723e-10
1.973402242e-10
2.218748577e-10
2.347745997e-10
2.406888271e-10
2.430927019e-10
2.439703082e-10
2.442612527e-10
2.443496583e-10
2.443744751e-10
2.443809548e-10
2.443825375e-10
2.44382901e-10
2.443829799e-10
2.443829961e-10
2.443829993e-10
2.443829999e-10
2.44383e-10
2.44383e-10
2.44383e-10
2.44383e-10
2.44383e-10
2.44383e-10
2.44383e-10
2.44383e-10
2.44383e-10
2.44383e-10
2.44383e-10
2.44383e-10
2.44383e-10
2.44383e-10
2.44383e-10
2.44383e-10
2.44383e-10
2.44383e-10
2.44383e-10
2.44383e-10
2.44383e-10
2.44383e-10
2.44383e-10
2.44383e-10
2.44383e-10
2.44383e-10
2.44383e-10
2.44383e-10
2.44383e-10
2.44383e-10
2.44383e-10
2.44383e-10
2.44383e-10
2.44383e-10
2.44383e-10
2.44383e-10
2.44383e-10
2.44383e-10
2.44383e-10
2.44383e-10
2.44383e-10
2.44383e-10
2.44383e-10
2.44383e-10
2.44383e-10
2.44383e-10
2.44383e-10
2.44383e-10
2.44383e-10
2.44383e-10
2.44383e-10
2.44383e-10
2.44383e-10
2.44383e-10
2.44383e-10
2.44383e-10
2.44383e-10
2.44383e-10
2.44383e-10
2.44383e-10
2.44383e-10
2.44383e-10
2.44383e-10
2.44383e-10
2.44383e-10
2.44383e-10
2.44383e-10
2.44383e-10
2.44383e-10
2.44383e-10
2.44383e-10
2.44383e-10
2.44383e-10
2.44383e-10
2.44383e-10
2.44383e-10
2.44383e-10
2.44383e-10
2.44383e-10
2.44383e-10
2.44383e-10
2.44383e-10
2.44383e-10
2.44383e-10
2.44383e-10
2.44383e-10
2.44383e-10
2.44383e-10
2.44383e-10
2.44383e-10
2.44383e-10
2.44383e-10
2.44383e-10
2.44383e-10
2.44383e-10
2.44383e-10
2.44383e-10
2.44383e-10
2.44383e-10
2.44383e-10
2.44383e-10
2.44383e-10
2.44383e-10
2.44383e-10
2.44383e-10
2.44383e-10
2.44383e-10
2.44383e-10
2.44383e-10
2.44383e-10
2.44383e-10
2.44383e-10
2.44383e-10
2.44383e-10
2.44383e-10
2.44383e-10
2.44383e-10
2.44383e-10
2.44383e-10
2.44383e-10
2.44383e-10
2.44383e-10
2.44383e-10
2.44383e-10
2.44383e-10
2.44383e-10
2.44383e-10
2.44383e-10
2.44383e-10
2.44383e-10
2.44383e-10
2.44383e-10
2.44383e-10
2.44383e-10
2.44383e-10
2.44383e-10
2.44383e-10
2.44383e-10
2.44383e-10
2.44383e-10
2.44383e-10
2.44383e-10
2.44383e-10
2.44383e-10
2.44383e-10
2.44383e-10
2.44383e-10
2.44383e-10
2.44383e-10
2.44383e-10
2.44383e-10
2.44383e-10
2.44383e-10
2.44383e-10
2.44383e-10
2.44383e-10
2.44383e-10
2.44383e-10
2.44383e-10
2.44383e-10
2.44383e-10
2.44383e-10
2.44383e-10
2.44383e-10
2.44383e-10
2.44383e-10
2.44383e-10
2.44383e-10
2.44383e-10
2.44383e-10
2.44383e-10
2.44383e-10
2.44383e-10
2.44383e-10
2.44383e-10
2.44383e-10
2.44383e-10
2.44383e-10
2.44383e-10
2.44383e-10
2.44383e-10
2.44383e-10
2.44383e-10
2.44383e-10
2.44383e-10
2.44383e-10
2.44383e-10
2.44383e-10
2.44383e-10
2.44383e-10
2.44383e-10
2.44383e-10
2.44383e-10
2.44383e-10
2.44383e-10
2.44383e-10
2.44383e-10
2.44383e-10
2.44383e-10
2.44383e-10
2.44383e-10
2.44383e-10
2.44383e-10
2.44383e-10
2.44383e-10
2.44383e-10
2.44383e-10
2.44383e-10
2.44383e-10
2.44383e-10
2.44383e-10
2.44383e-10
2.44383e-10
2.44383e-10
2.443830001e-10
2.443830004e-10
2.443830015e-10
2.443830054e-10
2.443830183e-10
2.443830583e-10
2.443831764e-10
2.443835054e-10
2.443843696e-10
2.443865037e-10
2.443914384e-10
2.444020639e-10
2.444231805e-10
2.444613304e-10
2.445221319e-10
2.446015369e-10
2.446354581e-10
2.446442423e-10
2.446533687e-10
2.446628579e-10
2.44672726e-10
2.446829889e-10
2.446936632e-10
2.447047667e-10
2.44716319e-10
2.447283408e-10
2.447408539e-10
2.447538814e-10
2.447674478e-10
2.447815784e-10
2.447963003e-10
2.448116415e-10
2.448276318e-10
2.448443024e-10
2.44861686e-10
2.448798173e-10
2.448987326e-10
2.449184701e-10
2.4493907e-10
2.449605746e-10
2.449830286e-10
2.450064786e-10
2.450309739e-10
2.450565664e-10
2.450833105e-10
2.451112635e-10
2.451404856e-10
2.451710403e-10
2.45202994e-10
2.452364168e-10
2.452713822e-10
2.453079676e-10
2.453462541e-10
2.453863271e-10
2.454282763e-10
2.454721957e-10
2.455181843e-10
2.455663457e-10
2.456167889e-10
2.456696283e-10
2.457249838e-10
2.457829812e-10
2.458437524e-10
2.459074359e-10
2.459741768e-10
2.460441271e-10
2.461174461e-10
2.461943007e-10
2.462748658e-10
2.463593244e-10
2.464478682e-10
2.465406976e-10
2.466380226e-10
2.467400625e-10
2.46847047e-10
2.469592159e-10
2.470768199e-10
2.472001212e-10
2.473293932e-10
2.474649218e-10
2.476070052e-10
2.477559548e-10
2.479120952e-10
2.480757651e-10
2.482473177e-10
2.484271209e-10
2.486155583e-10
2.488130292e-10
2.490199494e-10
2.49236752e-10
2.494638873e-10
2.497018239e-10
2.499510491e-10
2.502120692e-10
2.504854105e-10
2.507716199e-10
2.510712649e-10
2.513849348e-10
2.517132411e-10
2.520568182e-10
2.524163236e-10
2.527924392e-10
2.531858713e-10
2.535973516e-10
2.540276376e-10
2.544775135e-10
2.549477905e-10
2.554393075e-10
2.55952932e-10
2.564895603e-10
2.570501185e-10
2.576355628e-10
2.582468802e-10
2.588850894e-10
2.595512406e-10
2.602464171e-10
2.609717352e-10
2.617283447e-10
2.6251743e-10
2.6334021e-10
2.641979391e-10
2.650919074e-10
2.660234413e-10
2.669939039e-10
2.680046956e-10
2.690572543e-10
2.70153056e-10
2.712936148e-10
2.724804838e-10
2.737152551e-10
2.749995599e-10
2.763350693e-10
2.777234939e-10
2.791665845e-10
2.806661322e-10
2.82223968e-10
2.838419638e-10
2.855220317e-10
2.872661242e-10
2.890762346e-10
2.909543964e-10
2.929026835e-10
2.949232101e-10
2.970181302e-10
2.991896378e-10
3.014399665e-10
3.037713891e-10
3.061862173e-10
3.086868014e-10
3.112755298e-10
3.139548284e-10
3.167271605e-10
3.195950257e-10
3.225609597e-10
3.256275336e-10
3.28797353e-10
3.320730577e-10
3.354573202e-10
3.38952846e-10
3.425623716e-10
3.462886644e-10
3.501345218e-10
3.541027696e-10
3.581962618e-10
3.624178792e-10
3.667705285e-10
3.712571412e-10
3.758806727e-10
3.80644101e-10
3.855504257e-10
3.906026671e-10
3.958038647e-10
4.011570766e-10
4.066653779e-10
4.1233186e-10
4.181596291e-10
4.241518055e-10
4.303115226e-10
4.366419252e-10
4.431461694e-10
4.49827421e-10
4.566888548e-10
4.637336537e-10
4.709650079e-10
4.783861139e-10
4.860001742e-10
4.938103964e-10
5.018199925e-10
5.100321787e-10
5.184501751e-10
5.27077205e-10
5.35916495e-10
5.449712749e-10
5.542447778e-10
5.637402402e-10
5.734609022e-10
5.834100083e-10
5.935908077e-10
6.040065555e-10
6.146605129e-10
6.255559493e-10
6.366961428e-10
6.480843821e-10
6.597239682e-10
6.716182164e-10
6.837704583e-10
6.961840442e-10
7.088623459e-10
7.218087593e-10
7.35026708e-10
7.485196464e-10
7.622910632e-10
7.76344486e-10
7.906834851e-10
8.05311678e-10
8.20232735e-10
8.354503835e-10
8.509684144e-10
8.667906876e-10
8.829211382e-10
8.993637835e-10
9.161227296e-10
9.332021792e-10
9.506064392e-10
9.683399288e-10
9.864071882e-10
1.004812888e-09
1.023561838e-09
1.042658997e-09
1.062109485e-09
1.081918591e-09
1.102091786e-09
1.122634737e-09
1.143553314e-09
1.164853607e-09
1.186541937e-09
1.208624874e-09
1.231109243e-09
1.254002149e-09
1.277310983e-09
1.301043445e-09
1.325207557e-09
1.349811681e-09
1.374864537e-09
1.40037522e-09
1.426353222e-09
1.452808447e-09
1.479751235e-09
1.507192383e-09
1.535143162e-09
1.563615345e-09
1.592621226e-09
1.622173647e-09
1.652286016e-09
1.682972341e-09
1.71424725e-09
1.746126017e-09
1.778624595e-09
1.811759637e-09
1.845548532e-09
1.880009432e-09
1.915161281e-09
1.951023852e-09
1.987617775e-09
2.024964573e-09
2.063086698e-09
2.102007566e-09
2.141751593e-09
2.182344236e-09
2.22381203e-09
2.266182633e-09
2.309484863e-09
2.353748745e-09
2.399005559e-09
2.445287879e-09
2.49262963e-09
2.541066138e-09
2.590634177e-09
2.641372035e-09
2.693319554e-09
2.746518209e-09
2.801011165e-09
2.856843325e-09
2.91406141e-09
2.97271403e-09
3.032851755e-09
3.0945272e-09
3.157795104e-09
3.222712415e-09
3.289338381e-09
3.357734646e-09
3.427965349e-09
3.50009723e-09
3.57419975e-09
3.6503452e-09
3.728608851e-09
3.809069097e-09
3.891807606e-09
3.976909482e-09
4.064463463e-09
4.154562117e-09
4.247302046e-09
4.342784109e-09
4.441113691e-09
4.542400979e-09
4.646761278e-09
4.754315349e-09
4.865189793e-09
4.979517462e-09
5.09743793e-09
5.219098007e-09
5.344652313e-09
5.47426393e-09
5.608105111e-09
5.746358093e-09
5.889216002e-09
6.036883864e-09
6.189579751e-09
6.347536069e-09
6.511001008e-09
6.680240176e-09
6.855538456e-09
7.03720209e-09
7.225561051e-09
7.42097172e-09
7.623819923e-09
7.834524375e-09
8.053540584e-09
8.281365288e-09
8.518541489e-09
8.765664171e-09
9.023386807e-09
9.292428751e-09
9.573583643e-09
9.867728981e-09
1.017583701e-08
1.049898709e-08
1.083837987e-08
1.119535327e-08
1.157140085e-08
1.196819265e-08
1.238759893e-08
1.283171722e-08
1.330290323e-08
1.380380599e-08
1.433740789e-08
1.490707044e-08
1.551658634e-08
1.617023886e-08
1.687286959e-08
1.762995566e-08
1.844769781e-08
1.933312083e-08
2.029418807e-08
2.133993209e-08
2.248060362e-08
2.37278415e-08
2.509486643e-08
2.659670202e-08
2.82504269e-08
3.007546227e-08
3.209389983e-08
3.433087588e-08
3.6814998e-08
3.957883169e-08
4.265945539e-08
4.609909365e-08
4.994583912e-08
5.425447614e-08
5.908742003e-08
6.451578835e-08
7.062062263e-08
7.749428175e-08
8.5242031e-08
9.398385419e-08
1.038565202e-07
1.150159393e-07
1.276398506e-07
1.419308856e-07
1.581200619e-07
1.764707659e-07
1.972832943e-07
2.2090003e-07
2.477113442e-07
2.781623217e-07
3.127604281e-07
3.520842464e-07
3.967934339e-07
4.476400662e-07
5.054815621e-07
5.712954064e-07
6.461959189e-07
7.314533505e-07
8.285156248e-07
9.390330882e-07
1.064886677e-06
1.208219962e-06
1.371475607e-06
1.557436809e-06
1.769274422e-06
2.010600479e-06
2.285528993e-06
2.598744965e-06
2.955582673e-06
3.362114431e-06
3.825251148e-06
4.352856158e-06
4.953873965e-06
5.638475698e-06
6.41822326e-06
7.306254335e-06
8.317490598e-06
9.468871652e-06
1.077961738e-05
1.227152158e-05
1.396927971e-05
1.590085399e-05
1.809787852e-05
2.059610762e-05
2.343590974e-05
2.666280941e-05
3.032807865e-05
3.448937874e-05
3.921145188e-05
4.456686071e-05
5.063677208e-05
5.751177855e-05
6.529274879e-05
7.409169441e-05
8.403263707e-05
9.525245581e-05
0.00010790169
0.0001221452691
0.0001381631367
0.0001561507331
0.0001763192975
0.0001988959535
0.0002241235389
0.0002522601512
0.0002835783812
0.0003183642239
0.0003569156647
0.0003995409571
0.0004465566239
0.0004982852318
0.0005550530031
0.0006171873435
0.0006850143692
0.0007588565255
0.0008390303809
0.0009258446783
0.001019598713
0.001120581088
0.00122906889
0.001345327294
0.001469609627
0.001602157823
0.001743203316
0.001892968311
0.002051667488
0.002219510297
0.002396704297
0.002583460499
0.002779960477
0.00298655905
0.003203269288
0.003431062024
0.003670124397
0.00392081716
0.004179889056
0.00444941889
0.004729098202
0.005018144524
0.00531491825
0.005616331029
0.005917574648
0.006212845855
0.0064963914
0.006762881665
0.007006914416
0.007225665228
0.007405227894
0.007539505984
0.007617235375
0.007626188603
0.007553491914
0.007390121606
0.007131960919
0.006779830455
0.006347465842
0.005848657525
0.005303598359
0.00473411918
0.004161522884
0.003604767601
0.00307700661
0.002594531147
0.002160735316
0.00178185638
0.001456374897
0.001181530155
0.0009528411632
0.0007649160845
0.0006106953474
0.0004853815113
0.0003848599716
0.0003046334577
0.0002408708813
0.0001903422381
0.0001503673812
0.0001187844646
9.385255945e-05
7.417508205e-05
5.887937192e-05
4.67937893e-05
3.71446003e-05
2.953019965e-05
2.351426928e-05
1.875387369e-05
1.498075574e-05
1.198524324e-05
9.605440139e-06
7.708674302e-06
6.195990356e-06
4.987853206e-06
4.021544873e-06
3.247532324e-06
2.626640095e-06
2.127842581e-06
1.726536082e-06
1.403183875e-06
1.142252185e-06
9.313735391e-07
7.606880984e-07
6.223245237e-07
5.099903312e-07
4.18648278e-07
3.442603716e-07
2.835851711e-07
2.34017043e-07
1.934585406e-07
1.602189495e-07
1.329335285e-07
1.104991379e-07
9.202286167e-08
7.678094772e-08
6.418594863e-08
5.37603916e-08
4.511565196e-08
3.79349797e-08
3.195984513e-08
2.697894036e-08
2.281930867e-08
1.933918112e-08
1.642218452e-08
1.397265227e-08
1.191182348e-08
1.017475812e-08
8.707830404e-09
7.466689239e-09
6.414596885e-09
5.521073845e-09
4.760792219e-09
4.112670797e-09
3.559134177e-09
3.085505389e-09
2.679507316e-09
2.330852883e-09
2.030907758e-09
1.772412349e-09
1.549252365e-09
1.356269189e-09
1.189102925e-09
1.044062307e-09
9.180167175e-10
8.083064156e-10
7.126677967e-10
6.291710727e-10
5.56168226e-10
4.922494769e-10
4.362068146e-10
3.870033969e-10
3.437478341e-10
3.056725416e-10
2.72115489e-10
2.42504788e-10
2.163456559e-10
1.932093716e-10
1.727239035e-10
1.545659442e-10
1.384541298e-10
1.241432576e-10
1.114193494e-10
1.000954275e-10
9.000789724e-11
8.101344256e-11
7.298635881e-11
6.581625724e-11
5.940608664e-11
5.367042578e-11
4.853400752e-11
4.393044124e-11
3.980110562e-11
3.609418745e-11
3.276384644e-11
2.976948827e-11
2.707513123e-11
2.464885367e-11
2.246231127e-11
2.049031497e-11
1.871046138e-11
1.710280883e-11
1.564959307e-11
1.43349776e-11
1.314483407e-11
1.206654897e-11
1.108885332e-11
1.020167249e-11
9.395993535e-12
8.663748096e-12
7.997708732e-12
7.39139722e-12
6.839003308e-12
6.33531268e-12
5.875643044e-12
5.455787382e-12
5.071963522e-12
4.720769288e-12
4.399142599e-12
4.104325934e-12
3.833834662e-12
3.58542881e-12
3.357087874e-12
3.146988325e-12
2.95348352e-12
2.775085747e-12
2.610450158e-12
2.458360405e-12
2.317715767e-12
2.187519623e-12
2.066869126e-12
1.95494593e-12
1.851007883e-12
1.754381563e-12
1.664455575e-12
1.58067453e-12
1.502533635e-12
1.429573818e-12
1.361377352e-12
1.297563909e-12
1.237787008e-12
1.181730819e-12
1.12910727e-12
1.079653455e-12
1.033129279e-12
9.893153437e-13
9.480110358e-13
9.09032795e-13
8.722125556e-13
8.37396333e-13
8.044429479e-13
7.732228696e-13
7.436171712e-13
7.155165813e-13
6.888206268e-13
6.634368544e-13
6.392801254e-13
6.162719766e-13
5.943400392e-13
5.734175118e-13
5.534426822e-13
5.343584919e-13
5.161121415e-13
4.986547307e-13
4.819409312e-13
4.659286897e-13
4.505789563e-13
4.358554378e-13
4.217243728e-13
4.081543267e-13
3.951160041e-13
3.825820788e-13
3.705270374e-13
3.58927037e-13
3.477597755e-13
3.370043719e-13
3.266412583e-13
3.166520796e-13
3.07019603e-13
2.977276338e-13
2.887609394e-13
2.801051788e-13
2.717468381e-13
2.636731715e-13
2.55872147e-13
2.483323963e-13
2.410431688e-13
2.339942898e-13
2.271761209e-13
2.205795247e-13
2.141958314e-13
2.080168083e-13
2.02034632e-13
1.962418618e-13
1.906314163e-13
1.851965507e-13
1.799308363e-13
1.748281414e-13
1.69882614e-13
1.650886647e-13
1.60440952e-13
1.559343681e-13
1.515640254e-13
1.473252448e-13
1.432135435e-13
1.392246254e-13
1.353543703e-13
1.315988252e-13
1.279541952e-13
1.244168358e-13
1.209832453e-13
1.176500575e-13
1.144140352e-13
1.112720639e-13
1.082211462e-13
1.052583957e-13
1.023810327e-13
9.958637856e-14
9.687185168e-14
9.423496279e-14
9.16733111e-14
8.918458037e-14
8.676653528e-14
8.441701804e-14
8.213394511e-14
7.991530415e-14
7.775915105e-14
7.566360722e-14
7.362685693e-14
7.16471448e-14
6.972277351e-14
6.785210146e-14
6.603354067e-14
6.42655547e-14
6.25466568e-14
6.087540792e-14
5.925041505e-14
5.767032947e-14
5.613384515e-14
5.463969724e-14
5.318666055e-14
5.177354814e-14
5.039921e-14
4.906253175e-14
4.77624334e-14
4.649786813e-14
4.52678212e-14
4.407130882e-14
4.290737711e-14
4.177510113e-14
4.067358384e-14
3.960195524e-14
3.855937144e-14
3.754501379e-14
3.65580881e-14
3.559782378e-14
3.466347314e-14
3.37543106e-14
3.286963198e-14
3.200875386e-14
3.117101289e-14
3.035576515e-14
2.956238557e-14
2.879026728e-14
2.803882107e-14
2.730747486e-14
2.659567314e-14
2.590287646e-14
2.522856092e-14
2.457221775e-14
2.393335277e-14
2.3311486e-14
2.270615119e-14
2.211689542e-14
2.154327869e-14
2.098487357e-14
2.044126475e-14
1.99120487e-14
1.939683335e-14
1.889523773e-14
1.840689162e-14
1.793143524e-14
1.746851897e-14
1.701780298e-14
1.657895702e-14
1.615166009e-14
1.573560017e-14
1.533047397e-14
1.493598669e-14
1.455185171e-14
1.417779044e-14
1.3813532e-14
1.345881307e-14
1.31133776e-14
1.277697666e-14
1.24493682e-14
1.213031685e-14
1.181959378e-14
1.151697641e-14
1.122224834e-14
1.093519909e-14
1.065562399e-14
1.038332397e-14
1.011810544e-14
9.859780081e-15
9.608164752e-15
9.36308131e-15
9.124356474e-15
8.891821693e-15
8.665313004e-15
8.44467091e-15
8.229740253e-15
8.020370083e-15
7.816413554e-15
7.617727799e-15
7.424173813e-15
7.235616368e-15
7.05192388e-15
6.872968325e-15
6.698625129e-15
6.528773081e-15
6.363294232e-15
6.202073809e-15
6.045000124e-15
5.89196449e-15
5.742861142e-15
5.597587146e-15
5.456042333e-15
5.318129207e-15
5.183752885e-15
5.052821017e-15
4.925243729e-15
4.800933537e-15
4.679805294e-15
4.561776117e-15
4.446765336e-15
4.334694419e-15
4.225486932e-15
4.119068467e-15
4.015366591e-15
3.914310785e-15
3.815832412e-15
3.719864639e-15
3.626342417e-15
3.535202407e-15
3.446382949e-15
3.359824009e-15
3.275467138e-15
3.193255427e-15
3.113133468e-15
3.035047315e-15
2.958944435e-15
2.884773683e-15
2.812485262e-15
2.742030671e-15
2.673362692e-15
2.606435342e-15
2.541203844e-15
2.477624591e-15
2.415655125e-15
2.355254096e-15
2.296381231e-15
2.238997313e-15
2.18306415e-15
2.128544544e-15
2.075402272e-15
2.023602052e-15
1.973109524e-15
1.923891218e-15
1.87591454e-15
1.82914774e-15
1.783559898e-15
1.739120895e-15
1.695801394e-15
1.653572819e-15
1.612407336e-15
1.572277833e-15
1.533157898e-15
1.495021804e-15
1.457844497e-15
1.421601562e-15
1.386269217e-15
1.351824297e-15
1.318244236e-15
1.285507047e-15
1.253591314e-15
1.222476168e-15
1.192141286e-15
1.162566865e-15
1.13373361e-15
1.105622723e-15
1.07821589e-15
1.051495271e-15
1.025443481e-15
1.000043585e-15
9.752790796e-16
9.511338856e-16
9.27592337e-16
9.046391707e-16
8.822595118e-16
8.604388677e-16
8.391631206e-16
8.184185118e-16
7.981916341e-16
7.784694197e-16
7.592391413e-16
7.40488393e-16
7.222050858e-16
7.043774385e-16
6.869939767e-16
6.700435111e-16
6.535151423e-16
6.37398247e-16
6.216824733e-16
6.06357732e-16
5.914141923e-16
5.768422725e-16
5.626326351e-16
5.487761793e-16
5.352640344e-16
5.220875592e-16
5.092383302e-16
4.967081371e-16
4.844889759e-16
4.725730495e-16
4.609527563e-16
4.496206874e-16
4.385696212e-16
4.277925209e-16
4.172825253e-16
4.070329476e-16
3.970372742e-16
3.872891502e-16
3.777823832e-16
3.685109377e-16
3.594689291e-16
3.506506231e-16
3.420504294e-16
3.33662899e-16
3.254827214e-16
3.175047187e-16
3.097238403e-16
3.021351645e-16
2.947338945e-16
2.875153525e-16
2.804749793e-16
2.736083289e-16
2.669110669e-16
2.603789684e-16
2.54007912e-16
2.477938801e-16
2.417329541e-16
2.358213155e-16
2.300552392e-16
2.244310938e-16
2.189453354e-16
2.135945095e-16
2.083752451e-16
2.032842559e-16
1.983183339e-16
1.934743529e-16
1.887492582e-16
1.841400735e-16
1.796438933e-16
1.752578804e-16
1.709792663e-16
1.668053499e-16
1.627334922e-16
1.587611177e-16
1.548857106e-16
1.511048114e-16
1.474160168e-16
1.438169805e-16
1.40305407e-16
1.368790501e-16
1.335357139e-16
1.302732494e-16
1.270895525e-16
1.23982562e-16
1.209502594e-16
1.179906639e-16
1.151018356e-16
1.122818698e-16
1.09528894e-16
1.06841072e-16
1.042165967e-16
1.016536921e-16
9.915061168e-17
9.670563342e-17
9.431706318e-17
9.198323272e-17
8.970249584e-17
8.747323196e-17
8.529384338e-17
8.316275677e-17
8.107842497e-17
7.903932349e-17
7.704395732e-17
7.509085902e-17
7.317859481e-17
7.130576681e-17
6.947101617e-17
6.767303127e-17
6.59105575e-17
6.418240812e-17
6.248748873e-17
4.895603164e-17
3.470677252e-17
2.466947586e-17
1.753226848e-17
1.244703479e-17
8.825270544e-18
6.248600317e-18
4.417812819e-18
3.118791342e-18
2.198410001e-18
1.547268672e-18
1.087293418e-18
7.628575253e-19
5.34377724e-19
3.737379523e-19
2.609674532e-19
1.819267609e-19
1.266250345e-19
8.799166555e-20
6.104980615e-20
4.229238982e-20
2.925044535e-20
2.019861062e-20
1.393066246e-20
9.59258321e-21
6.597003495e-21
4.530831046e-21
3.108257799e-21
2.130135814e-21
1.458560862e-21
9.979407477e-22
6.83061796e-22
4.675218206e-22
3.202173563e-22
2.20311883e-22
1.521079896e-22
1.05612053e-22
7.416641004e-23
5.288650547e-23
3.835662714e-23
2.904706598e-23
2.257065264e-23
1.871388611e-23
1.640960351e-23
1.481317929e-23
1.34288404e-23
1.235495792e-23
1.320660649e-23
1.223826195e-23
1.278930346e-23
1.352539413e-23
1.421384538e-23
1.39250911e-23
1.45222982e-23
1.529546518e-23
1.71263667e-23
1.784015894e-23
1.816196169e-23
1.887881274e-23
1.889498131e-23
2.000805641e-23
2.023120681e-23
2.122557692e-23
2.179464165e-23
2.249980497e-23
2.308669324e-23
2.382196221e-23
2.44568557e-23
2.500832163e-23
2.558722228e-23
2.594272382e-23
2.658344946e-23
2.715668685e-23
2.755657606e-23
2.824224832e-23
2.838410913e-23
2.867478098e-23
2.910157625e-23
2.919843585e-23
2.939587319e-23
2.946296031e-23
2.962358036e-23
2.994508229e-23
3.037650712e-23
3.034996351e-23
3.034860713e-23
3.044889105e-23
3.054793402e-23
3.064054374e-23
3.073292023e-23
3.08069796e-23
3.080727994e-23
3.084160566e-23
3.084403919e-23
3.090011227e-23
3.091020986e-23
3.092463962e-23
3.094915491e-23
3.095804289e-23
3.096721196e-23
3.096833298e-23
3.097963069e-23
3.098246143e-23
3.098208894e-23
3.098162469e-23
3.097810551e-23
3.098011915e-23
3.098230048e-23
3.09801898e-23
3.097295009e-23
3.097882984e-23
3.097593841e-23
3.097347689e-23
3.097371425e-23
3.097322155e-23
3.097296316e-23
3.097396604e-23
3.097131514e-23
3.097291307e-23
3.097205822e-23
3.096783455e-23
3.096822189e-23
3.097099275e-23
3.096396042e-23
3.09657839e-23
3.096164326e-23
3.096553862e-23
3.096159752e-23
3.096550337e-23
3.09636483e-23
3.096100562e-23
3.096273087e-23
3.0957283e-23
3.095912012e-23
3.097056323e-23
3.096682191e-23
3.096450372e-23
3.096766528e-23
3.097283463e-23
3.095766009e-23
3.095819591e-23
3.095448407e-23
3.096800813e-23
3.095368777e-23
3.095980574e-23
3.096305362e-23
3.095658001e-23
3.09602536e-23
3.095893024e-23
3.095651415e-23
3.096128992e-23
3.095721492e-23
3.096300224e-23
3.095817284e-23
3.09586206e-23
3.096459629e-23
3.095324992e-23
3.096903833e-23
3.095833189e-23
3.09637212e-23
3.096845462e-23
3.095732407e-23
3.095214615e-23
3.095921808e-23
3.096641326e-23
3.095627681e-23
3.095190347e-23
3.094867743e-23
3.095361791e-23
3.095267794e-23
3.095308664e-23
3.095211344e-23
3.094578056e-23
3.095233442e-23
3.095473826e-23
3.09576589e-23
3.096339115e-23
3.095969725e-23
3.095605325e-23
3.096092354e-23
3.096299653e-23
3.096538315e-23
3.09591783e-23
3.09601549e-23
3.095536461e-23
3.09548478e-23
3.095204428e-23
3.095591379e-23
3.095918547e-23
3.095156472e-23
3.095420302e-23
3.095806687e-23
3.095179176e-23
3.096029099e-23
3.096061087e-23
3.095248385e-23
3.096586104e-23
3.095774743e-23
3.096084845e-23
3.095028248e-23
3.094741892e-23
3.094966541e-23
3.095581283e-23
3.095202609e-23
3.095225184e-23
3.095560707e-23
3.095772538e-23
3.095334126e-23
3.094718858e-23
3.095725141e-23
3.095096575e-23
3.095405304e-23
3.095137498e-23
3.095102067e-23
3.095234125e-23
3.095293428e-23
3.095270495e-23
3.095792238e-23
3.095173663e-23
3.095246534e-23
3.095207491e-23
3.095635051e-23
3.095256085e-23
3.095455835e-23
3.095475609e-23
3.095173598e-23
3.094854224e-23
3.095469279e-23
3.095360896e-23
3.095261682e-23
3.095528585e-23
3.095543691e-23
3.094570271e-23
3.095014914e-23
3.094841692e-23
3.095559786e-23
3.095703721e-23
3.095344484e-23
3.095201996e-23
3.094525766e-23
3.095083036e-23
3.094425517e-23
3.094316418e-23
3.094973006e-23
3.094551374e-23
3.094297848e-23
3.094550489e-23
3.095758334e-23
3.095220086e-23
3.09431575e-23
)
;

boundaryField
{
    inlet
    {
        type            fixedValue;
        value           uniform 0;
    }
    outlet
    {
        type            zeroGradient;
    }
    wall
    {
        type            empty;
    }
}


// ************************************************************************* //
