/*--------------------------------*- C++ -*----------------------------------*\
  =========                 |
  \\      /  F ield         | OpenFOAM: The Open Source CFD Toolbox
   \\    /   O peration     | Website:  https://openfoam.org
    \\  /    A nd           | Version:  7
     \\/     M anipulation  |
\*---------------------------------------------------------------------------*/
FoamFile
{
    version     2.0;
    format      ascii;
    class       volScalarField;
    location    "0.000558243009";
    object      C2H4_0;
}
// * * * * * * * * * * * * * * * * * * * * * * * * * * * * * * * * * * * * * //

dimensions      [0 0 0 0 0 0 0];

internalField   nonuniform List<scalar> 
1500
(
1.298041812e-11
5.077166929e-11
1.047943271e-10
1.57630651e-10
1.973708294e-10
2.21894122e-10
2.347848933e-10
2.406936089e-10
2.430946672e-10
2.439710328e-10
2.442614952e-10
2.443497326e-10
2.443744962e-10
2.443809603e-10
2.443825389e-10
2.443829014e-10
2.4438298e-10
2.443829961e-10
2.443829993e-10
2.443829999e-10
2.44383e-10
2.44383e-10
2.44383e-10
2.44383e-10
2.44383e-10
2.44383e-10
2.44383e-10
2.44383e-10
2.44383e-10
2.44383e-10
2.44383e-10
2.44383e-10
2.44383e-10
2.44383e-10
2.44383e-10
2.44383e-10
2.44383e-10
2.44383e-10
2.44383e-10
2.44383e-10
2.44383e-10
2.44383e-10
2.44383e-10
2.44383e-10
2.44383e-10
2.44383e-10
2.44383e-10
2.44383e-10
2.44383e-10
2.44383e-10
2.44383e-10
2.44383e-10
2.44383e-10
2.44383e-10
2.44383e-10
2.44383e-10
2.44383e-10
2.44383e-10
2.44383e-10
2.44383e-10
2.44383e-10
2.44383e-10
2.44383e-10
2.44383e-10
2.44383e-10
2.44383e-10
2.44383e-10
2.44383e-10
2.44383e-10
2.44383e-10
2.44383e-10
2.44383e-10
2.44383e-10
2.44383e-10
2.44383e-10
2.44383e-10
2.44383e-10
2.44383e-10
2.44383e-10
2.44383e-10
2.44383e-10
2.44383e-10
2.44383e-10
2.44383e-10
2.44383e-10
2.44383e-10
2.44383e-10
2.44383e-10
2.44383e-10
2.44383e-10
2.44383e-10
2.44383e-10
2.44383e-10
2.44383e-10
2.44383e-10
2.44383e-10
2.44383e-10
2.44383e-10
2.44383e-10
2.44383e-10
2.44383e-10
2.44383e-10
2.44383e-10
2.44383e-10
2.44383e-10
2.44383e-10
2.44383e-10
2.44383e-10
2.44383e-10
2.44383e-10
2.44383e-10
2.44383e-10
2.44383e-10
2.44383e-10
2.44383e-10
2.44383e-10
2.44383e-10
2.44383e-10
2.44383e-10
2.44383e-10
2.44383e-10
2.44383e-10
2.44383e-10
2.44383e-10
2.44383e-10
2.44383e-10
2.44383e-10
2.44383e-10
2.44383e-10
2.44383e-10
2.44383e-10
2.44383e-10
2.44383e-10
2.44383e-10
2.44383e-10
2.44383e-10
2.44383e-10
2.44383e-10
2.44383e-10
2.44383e-10
2.44383e-10
2.44383e-10
2.44383e-10
2.44383e-10
2.44383e-10
2.44383e-10
2.44383e-10
2.44383e-10
2.44383e-10
2.44383e-10
2.44383e-10
2.44383e-10
2.44383e-10
2.44383e-10
2.44383e-10
2.44383e-10
2.44383e-10
2.44383e-10
2.44383e-10
2.44383e-10
2.44383e-10
2.44383e-10
2.44383e-10
2.44383e-10
2.44383e-10
2.44383e-10
2.44383e-10
2.44383e-10
2.44383e-10
2.44383e-10
2.44383e-10
2.44383e-10
2.44383e-10
2.44383e-10
2.44383e-10
2.44383e-10
2.44383e-10
2.44383e-10
2.44383e-10
2.44383e-10
2.44383e-10
2.44383e-10
2.44383e-10
2.44383e-10
2.44383e-10
2.44383e-10
2.44383e-10
2.44383e-10
2.44383e-10
2.44383e-10
2.44383e-10
2.44383e-10
2.44383e-10
2.44383e-10
2.44383e-10
2.44383e-10
2.44383e-10
2.44383e-10
2.44383e-10
2.44383e-10
2.44383e-10
2.44383e-10
2.44383e-10
2.44383e-10
2.44383e-10
2.44383e-10
2.44383e-10
2.44383e-10
2.44383e-10
2.44383e-10
2.44383e-10
2.44383e-10
2.44383e-10
2.44383e-10
2.44383e-10
2.44383e-10
2.44383e-10
2.44383e-10
2.44383e-10
2.44383e-10
2.44383e-10
2.44383e-10
2.44383e-10
2.44383e-10
2.44383e-10
2.44383e-10
2.44383e-10
2.44383e-10
2.44383e-10
2.44383e-10
2.44383e-10
2.44383e-10
2.44383e-10
2.44383e-10
2.443830001e-10
2.443830004e-10
2.443830015e-10
2.443830054e-10
2.443830183e-10
2.443830584e-10
2.443831765e-10
2.443835058e-10
2.44384371e-10
2.443865075e-10
2.443914484e-10
2.444020877e-10
2.444232334e-10
2.444614378e-10
2.445223289e-10
2.446018538e-10
2.446358325e-10
2.44644625e-10
2.446537642e-10
2.446632685e-10
2.446731529e-10
2.446834325e-10
2.44694124e-10
2.447052454e-10
2.447168162e-10
2.447288571e-10
2.447413903e-10
2.447544388e-10
2.44768027e-10
2.447821806e-10
2.447969265e-10
2.448122928e-10
2.448283093e-10
2.448450074e-10
2.448624198e-10
2.448805812e-10
2.448995279e-10
2.449192984e-10
2.449399329e-10
2.449614737e-10
2.449839656e-10
2.450074554e-10
2.450319924e-10
2.450576286e-10
2.450844185e-10
2.451124196e-10
2.451416921e-10
2.451722997e-10
2.452043089e-10
2.4523779e-10
2.452728166e-10
2.453094661e-10
2.4534782e-10
2.453879638e-10
2.454299872e-10
2.454739846e-10
2.45520055e-10
2.455683024e-10
2.456188359e-10
2.456717701e-10
2.457272252e-10
2.457853272e-10
2.458462083e-10
2.459100072e-10
2.459768693e-10
2.460469468e-10
2.461203995e-10
2.461973945e-10
2.462781071e-10
2.463627205e-10
2.464514268e-10
2.46544427e-10
2.466419312e-10
2.467441593e-10
2.468513413e-10
2.469637175e-10
2.470815391e-10
2.472050687e-10
2.473345804e-10
2.474703603e-10
2.476127075e-10
2.477619336e-10
2.479183641e-10
2.480823383e-10
2.482542097e-10
2.484343473e-10
2.48623135e-10
2.48820973e-10
2.49028278e-10
2.492454835e-10
2.494730409e-10
2.497114194e-10
2.499611071e-10
2.502226114e-10
2.504964596e-10
2.507831991e-10
2.510833986e-10
2.513976485e-10
2.517265612e-10
2.520707721e-10
2.5243094e-10
2.528077477e-10
2.532019028e-10
2.536141381e-10
2.540452125e-10
2.544959112e-10
2.549670468e-10
2.554594596e-10
2.559740184e-10
2.565116209e-10
2.570731947e-10
2.576596973e-10
2.582721175e-10
2.589114751e-10
2.595788224e-10
2.60275244e-10
2.610018578e-10
2.617598155e-10
2.62550303e-10
2.633745412e-10
2.642337861e-10
2.651293296e-10
2.660625001e-10
2.670346626e-10
2.680472193e-10
2.6910161e-10
2.701993128e-10
2.713418439e-10
2.725307583e-10
2.737676501e-10
2.750541529e-10
2.763919396e-10
2.777827232e-10
2.792282565e-10
2.807303329e-10
2.822907856e-10
2.839114887e-10
2.855943565e-10
2.873413439e-10
2.891544465e-10
2.910357e-10
2.929871807e-10
2.95011005e-10
2.971093294e-10
2.992843502e-10
3.015383032e-10
3.038734638e-10
3.062921458e-10
3.08796702e-10
3.11389523e-10
3.140730371e-10
3.1684971e-10
3.197220436e-10
3.226925758e-10
3.257638801e-10
3.289385644e-10
3.322192705e-10
3.356086734e-10
3.391094806e-10
3.42724431e-10
3.464562941e-10
3.503078691e-10
3.542819843e-10
3.583814956e-10
3.626092858e-10
3.669682635e-10
3.714613622e-10
3.760915392e-10
3.808617743e-10
3.85775069e-10
3.908344453e-10
3.960429444e-10
4.014036259e-10
4.069195668e-10
4.125938597e-10
4.184296126e-10
4.244299471e-10
4.305979979e-10
4.369369113e-10
4.434498446e-10
4.501399648e-10
4.570104479e-10
4.640644779e-10
4.71305246e-10
4.787359498e-10
4.863597927e-10
4.941799832e-10
5.021997342e-10
5.104222628e-10
5.188507897e-10
5.27488539e-10
5.363387381e-10
5.454046174e-10
5.546894106e-10
5.641963548e-10
5.739286908e-10
5.838896638e-10
5.940825234e-10
6.045105253e-10
6.151769315e-10
6.260850117e-10
6.372380448e-10
6.486393202e-10
6.602921396e-10
6.721998189e-10
6.843656906e-10
6.967931059e-10
7.094854375e-10
7.224460824e-10
7.356784653e-10
7.491860417e-10
7.62972302e-10
7.770407751e-10
7.913950329e-10
8.06038695e-10
8.209754334e-10
8.362089781e-10
8.517431221e-10
8.675817281e-10
8.837287341e-10
9.001881606e-10
9.169641173e-10
9.340608106e-10
9.514825514e-10
9.692337635e-10
9.87318992e-10
1.005742913e-09
1.024510341e-09
1.043626241e-09
1.063095741e-09
1.082924135e-09
1.103116904e-09
1.123679721e-09
1.144618465e-09
1.165939237e-09
1.187648366e-09
1.209752433e-09
1.232258275e-09
1.255173007e-09
1.278504034e-09
1.302259071e-09
1.326446152e-09
1.351073655e-09
1.376150315e-09
1.401685246e-09
1.427687956e-09
1.454168369e-09
1.481136846e-09
1.508604201e-09
1.536581731e-09
1.565081231e-09
1.594115019e-09
1.623695962e-09
1.653837497e-09
1.684553659e-09
1.715859104e-09
1.747769139e-09
1.780299749e-09
1.813467621e-09
1.847290179e-09
1.881785612e-09
1.916972903e-09
1.952871865e-09
1.989503171e-09
2.026888387e-09
2.065050011e-09
2.104011506e-09
2.143797338e-09
2.184433017e-09
2.225945131e-09
2.268361393e-09
2.311710679e-09
2.356023077e-09
2.401329926e-09
2.447663867e-09
2.495058894e-09
2.5435504e-09
2.593175233e-09
2.643971759e-09
2.695979893e-09
2.749241195e-09
2.803798918e-09
2.859698047e-09
2.916985396e-09
2.975709667e-09
3.035921527e-09
3.097673692e-09
3.161021006e-09
3.226020525e-09
3.292731611e-09
3.361216024e-09
3.431538022e-09
3.503764472e-09
3.577964968e-09
3.654211925e-09
3.732580756e-09
3.813149997e-09
3.896001467e-09
3.981220422e-09
4.068895755e-09
4.159120211e-09
4.251990564e-09
4.347607854e-09
4.44607765e-09
4.547510336e-09
4.652021418e-09
4.759731874e-09
4.870768522e-09
4.985264449e-09
5.103359471e-09
5.225200652e-09
5.350942883e-09
5.480749524e-09
5.614793126e-09
5.753256239e-09
5.896332318e-09
6.044226741e-09
6.197157953e-09
6.355358756e-09
6.51907776e-09
6.688581028e-09
6.864153925e-09
7.046103214e-09
7.234759429e-09
7.430479555e-09
7.633650073e-09
7.844690409e-09
8.064056846e-09
8.292246966e-09
8.529804693e-09
8.777326024e-09
9.035465546e-09
9.304943835e-09
9.586555886e-09
9.881180693e-09
1.018979215e-08
1.051347149e-08
1.085342136e-08
1.121098201e-08
1.158764952e-08
1.198509679e-08
1.240519724e-08
1.285005201e-08
1.332202079e-08
1.382375711e-08
1.435824841e-08
1.492886191e-08
1.553939668e-08
1.619414321e-08
1.689795123e-08
1.765630703e-08
1.84754217e-08
1.936233169e-08
2.032501355e-08
2.137251472e-08
2.251510277e-08
2.376443554e-08
2.51337552e-08
2.663810966e-08
2.8294605e-08
3.012269341e-08
3.214450168e-08
3.438520575e-08
3.687345796e-08
3.964187444e-08
4.272759084e-08
4.617289628e-08
5.002595642e-08
5.434163802e-08
5.918244945e-08
6.46196133e-08
7.073428965e-08
7.761897111e-08
8.537907379e-08
9.413475152e-08
1.040229648e-07
1.151998399e-07
1.27843359e-07
1.421564273e-07
1.583703703e-07
1.76748921e-07
1.975927652e-07
2.212447236e-07
2.480956583e-07
2.785912057e-07
3.132394496e-07
3.526196664e-07
3.973922895e-07
4.483102636e-07
5.062319796e-07
5.721360084e-07
6.471378828e-07
7.325092065e-07
8.29699411e-07
9.403605211e-07
1.066375339e-06
1.20988951e-06
1.373347993e-06
1.559536534e-06
1.771628798e-06
2.013239925e-06
2.288487348e-06
2.602059827e-06
2.959295758e-06
3.366271961e-06
3.829904252e-06
4.358061295e-06
4.959693358e-06
5.644977772e-06
6.425483075e-06
7.314354009e-06
8.326519691e-06
9.478927494e-06
1.079080532e-05
1.22839551e-05
1.398308042e-05
1.591615132e-05
1.811480919e-05
2.061481468e-05
2.345654113e-05
2.668551588e-05
3.035301091e-05
3.451668356e-05
3.924126695e-05
4.459930806e-05
5.067194951e-05
5.754974888e-05
6.533352638e-05
7.413522835e-05
8.407879064e-05
9.530098136e-05
0.0001079521986
0.0001221971943
0.0001382156916
0.0001562028593
0.0001763696069
0.0001989426603
0.0002241643831
0.0002522923122
0.0002835983831
0.000318367832
0.0003568977754
0.0003994954829
0.0004464763759
0.0004981618038
0.0005548766605
0.0006169469215
0.0006846971858
0.0007584483114
0.0008385152321
0.0009252050327
0.001018815351
0.001119633161
0.001227933968
0.001343981434
0.001468027465
0.001600312675
0.001741067282
0.001890512362
0.002048861451
0.002216322603
0.002393101279
0.00257940531
0.002775384303
0.002981439633
0.003197437191
0.003424675674
0.003663356177
0.003913992135
0.004172312105
0.004441131023
0.004720163432
0.005008629932
0.005304893324
0.005605901349
0.005906950132
0.006202348752
0.006486355446
0.006753679023
0.006998778806
0.007218912298
0.007400044594
0.007536060004
0.0076157434
0.007627174328
0.007557172468
0.007396771838
0.007141478297
0.006793907789
0.006363898341
0.005867165489
0.005323597465
0.004754828765
0.004182040825
0.003624240256
0.003095978638
0.002611517473
0.002175691141
0.001794871285
0.001467513644
0.001190901318
0.0009605746059
0.0007711335324
0.0006162061935
0.0004901852402
0.0003890055887
0.0003082065791
0.0002439398359
0.0001929866489
0.0001526683794
0.0001208158216
9.56594478e-05
7.579307599e-05
6.024308053e-05
4.793659548e-05
3.813855586e-05
3.03876072e-05
2.424688639e-05
1.937433032e-05
1.550223476e-05
1.242079886e-05
9.965988542e-06
8.006707799e-06
6.44139358e-06
5.189229392e-06
4.186286817e-06
3.381931402e-06
2.736009402e-06
2.216640573e-06
1.798483592e-06
1.461371094e-06
1.189234306e-06
9.692548787e-07
7.911952382e-07
6.468692593e-07
5.297234028e-07
4.345048891e-07
3.569985214e-07
2.938177171e-07
2.422383896e-07
2.000667407e-07
1.655339226e-07
1.372120109e-07
1.139469026e-07
9.480467038e-08
7.902862644e-08
6.600492103e-08
5.523494867e-08
4.63131914e-08
3.890940835e-08
3.275430391e-08
2.762798255e-08
2.335063865e-08
1.977504034e-08
1.678045527e-08
1.426773608e-08
1.215533989e-08
1.037610057e-08
8.874608395e-09
7.605080424e-09
6.529627494e-09
5.616842365e-09
4.840648024e-09
4.179357036e-09
3.614902282e-09
3.132207027e-09
2.718668381e-09
2.36373319e-09
2.058549298e-09
1.795678411e-09
1.568859324e-09
1.372812392e-09
1.203077837e-09
1.055881811e-09
9.280253087e-10
8.167918665e-10
7.198707669e-10
6.352930379e-10
5.613780326e-10
4.966887686e-10
4.399945322e-10
3.902395142e-10
3.465164633e-10
3.080445182e-10
2.741505255e-10
2.442532695e-10
2.178501393e-10
1.945058382e-10
1.738428059e-10
1.555330832e-10
1.392913877e-10
1.248692141e-10
1.120497973e-10
1.006438059e-10
9.048565561e-11
8.143034675e-11
7.335074865e-11
6.613526346e-11
5.968581372e-11
5.391610629e-11
4.875013236e-11
4.412086986e-11
3.996915917e-11
3.624272771e-11
3.289534274e-11
2.988607424e-11
2.717865307e-11
2.47409111e-11
2.254429246e-11
2.056342628e-11
1.87757527e-11
1.716119524e-11
1.570187338e-11
1.438185013e-11
1.318691025e-11
1.210436496e-11
1.112288e-11
1.023232403e-11
9.423634797e-12
8.688700981e-12
8.020257666e-12
7.411793891e-12
6.857470764e-12
6.352048871e-12
5.890823897e-12
5.469569467e-12
5.08448637e-12
4.732157409e-12
4.409507241e-12
4.113766617e-12
3.84244052e-12
3.593279767e-12
3.364255672e-12
3.153537429e-12
2.959471915e-12
2.780565636e-12
2.615468582e-12
2.462959789e-12
2.321934403e-12
2.1913921e-12
2.070426707e-12
1.958216893e-12
1.854017823e-12
1.757153656e-12
1.667010822e-12
1.58303197e-12
1.504710535e-12
1.431585847e-12
1.363238735e-12
1.299287564e-12
1.239384673e-12
1.183213161e-12
1.130483989e-12
1.080933374e-12
1.034320425e-12
9.904250237e-13
9.490459027e-13
9.099989092e-13
8.731154388e-13
8.382410189e-13
8.052340262e-13
7.739645277e-13
7.443132303e-13
7.161705305e-13
6.894356529e-13
6.640158697e-13
6.398257929e-13
6.167867321e-13
5.948261123e-13
5.738769444e-13
5.538773453e-13
5.347701013e-13
5.165022714e-13
4.990248265e-13
4.822923212e-13
4.662625952e-13
4.508965012e-13
4.361576572e-13
4.22012221e-13
4.08428684e-13
3.953776835e-13
3.828318316e-13
3.707655588e-13
3.591549709e-13
3.479777184e-13
3.372128777e-13
3.268408413e-13
3.16843218e-13
3.072027419e-13
2.979031881e-13
2.889292959e-13
2.802666987e-13
2.719018592e-13
2.638220097e-13
2.560150984e-13
2.484697385e-13
2.411751624e-13
2.341211797e-13
2.272981374e-13
2.206968847e-13
2.143087394e-13
2.081254573e-13
2.021392041e-13
1.963425293e-13
1.907283421e-13
1.852898892e-13
1.800207337e-13
1.749147367e-13
1.699660389e-13
1.651690444e-13
1.605184057e-13
1.560090091e-13
1.516359618e-13
1.473945793e-13
1.432803745e-13
1.392890465e-13
1.35416471e-13
1.31658691e-13
1.28011908e-13
1.244724739e-13
1.210368836e-13
1.177017678e-13
1.144638863e-13
1.113201218e-13
1.082674741e-13
1.053030544e-13
1.024240806e-13
9.962787178e-14
9.691184406e-14
9.427350613e-14
9.171045523e-14
8.922037323e-14
8.680102304e-14
8.445024516e-14
8.21659544e-14
7.994613686e-14
7.778884694e-14
7.569220461e-14
7.365439277e-14
7.167365476e-14
6.974829199e-14
6.787666166e-14
6.605717464e-14
6.428829341e-14
6.256853011e-14
6.08964447e-14
5.927064319e-14
5.768977592e-14
5.615253597e-14
5.465765761e-14
5.32039148e-14
5.17901198e-14
5.041512184e-14
4.907780577e-14
4.777709089e-14
4.65119297e-14
4.528130677e-14
4.408423768e-14
4.291976794e-14
4.178697199e-14
4.06849522e-14
3.961283802e-14
3.856978501e-14
3.755497402e-14
3.656761034e-14
3.560692289e-14
3.467216351e-14
3.376260616e-14
3.287754624e-14
3.201629989e-14
3.117820336e-14
3.036261232e-14
2.95689013e-14
2.879646307e-14
2.804470807e-14
2.731306386e-14
2.660097458e-14
2.590790045e-14
2.523331729e-14
2.457671597e-14
2.393760206e-14
2.331549525e-14
2.270992902e-14
2.21204502e-14
2.154661852e-14
2.098800627e-14
2.044419791e-14
1.991478968e-14
1.939938926e-14
1.889761547e-14
1.840909786e-14
1.793347645e-14
1.74704014e-14
1.701953269e-14
1.658053987e-14
1.615310176e-14
1.573690616e-14
1.533164962e-14
1.493703713e-14
1.455278195e-14
1.417860529e-14
1.381423615e-14
1.345941102e-14
1.311387373e-14
1.27773752e-14
1.244967324e-14
1.213053236e-14
1.181972358e-14
1.151702422e-14
1.122221773e-14
1.093509352e-14
1.065544682e-14
1.038307843e-14
1.011779465e-14
9.859407081e-15
9.607732463e-15
9.362592558e-15
9.123813985e-15
8.891228101e-15
8.664670861e-15
8.443982677e-15
8.229008303e-15
8.019596713e-15
7.815600973e-15
7.616878144e-15
7.423289151e-15
7.234698684e-15
7.050975093e-15
6.871990286e-15
6.697619622e-15
6.527741828e-15
6.362238891e-15
6.200995976e-15
6.043901341e-15
5.890846242e-15
5.741724861e-15
5.596434209e-15
5.45487406e-15
5.316946872e-15
5.182557712e-15
5.051614186e-15
4.924026373e-15
4.799706747e-15
4.678570117e-15
4.56053356e-15
4.445516363e-15
4.333439962e-15
4.224227882e-15
4.117805673e-15
4.014100866e-15
3.913042917e-15
3.814563147e-15
3.718594707e-15
3.625072506e-15
3.533933176e-15
3.445115025e-15
3.358557992e-15
3.2742036e-15
3.191994914e-15
3.111876502e-15
3.033794395e-15
2.957696039e-15
2.883530267e-15
2.811247251e-15
2.740798481e-15
2.672136711e-15
2.605215934e-15
2.539991357e-15
2.476419357e-15
2.414457453e-15
2.354064279e-15
2.295199548e-15
2.237824025e-15
2.1818995e-15
2.127388768e-15
2.074255584e-15
2.022464656e-15
1.971981609e-15
1.922772957e-15
1.874806098e-15
1.82804927e-15
1.78247154e-15
1.738042776e-15
1.694733632e-15
1.652515522e-15
1.611360599e-15
1.571241744e-15
1.532132536e-15
1.494007241e-15
1.456840791e-15
1.420608767e-15
1.385287377e-15
1.350853451e-15
1.317284411e-15
1.284558268e-15
1.252653594e-15
1.22154952e-15
1.191225713e-15
1.161662364e-15
1.13284017e-15
1.104740334e-15
1.077344534e-15
1.050634925e-15
1.024594118e-15
9.992051729e-16
9.744515796e-16
9.503172584e-16
9.267865393e-16
9.038441523e-16
8.814752219e-16
8.596652511e-16
8.384001173e-16
8.176660595e-16
7.974496695e-16
7.777378759e-16
7.585179474e-16
7.397774797e-16
7.21504379e-16
7.036868652e-16
6.86313456e-16
6.693729648e-16
6.52854487e-16
6.367473996e-16
6.210413493e-16
6.057262477e-16
5.907922597e-16
5.762298025e-16
5.620295372e-16
5.481823639e-16
5.346794131e-16
5.215120394e-16
5.086718175e-16
4.961505361e-16
4.839401907e-16
4.720329843e-16
4.604213152e-16
4.490977756e-16
4.380551436e-16
4.272863804e-16
4.167846247e-16
4.065431914e-16
3.965555649e-16
3.868153909e-16
3.773164787e-16
3.680527892e-16
3.590184409e-16
3.502076999e-16
3.416149749e-16
3.332348175e-16
3.25061916e-16
3.170910914e-16
3.093172964e-16
3.017356107e-16
2.943412359e-16
2.871294953e-16
2.800958307e-16
2.732357954e-16
2.665450558e-16
2.60019387e-16
2.536546691e-16
2.47446885e-16
2.413921169e-16
2.354865461e-16
2.29726449e-16
2.241081919e-16
2.186282346e-16
2.132831218e-16
2.080694841e-16
2.029840347e-16
1.980235674e-16
1.931849571e-16
1.884651501e-16
1.838611682e-16
1.793701078e-16
1.74989133e-16
1.707154753e-16
1.66546434e-16
1.624793723e-16
1.58511714e-16
1.546409421e-16
1.508645996e-16
1.471802849e-16
1.435856519e-16
1.400784027e-16
1.366562943e-16
1.3331713e-16
1.300587613e-16
1.268790841e-16
1.237760376e-16
1.20747604e-16
1.177918031e-16
1.149066948e-16
1.120903729e-16
1.093409673e-16
1.066566413e-16
1.040355887e-16
1.014760326e-16
9.897622709e-17
9.653445254e-17
9.414901528e-17
9.181824714e-17
8.954050547e-17
8.731417476e-17
8.513766344e-17
8.300940756e-17
8.092787205e-17
7.889155184e-17
7.68989779e-17
7.494871653e-17
7.303937837e-17
7.116962171e-17
6.933815771e-17
6.754375432e-17
6.578524298e-17
6.406151121e-17
6.237149777e-17
4.888338177e-17
3.463384041e-17
2.461435551e-17
1.749209396e-17
1.241811783e-17
8.804720547e-18
6.234169268e-18
4.407791619e-18
3.111914493e-18
2.193744984e-18
1.54413097e-18
1.08521306e-18
7.614930889e-19
5.334967119e-19
3.731699208e-19
2.606097244e-19
1.817044041e-19
1.264884769e-19
8.791089182e-20
6.100160506e-20
4.226555884e-20
2.923659435e-20
2.019180196e-20
1.392688174e-20
9.590932519e-21
6.596903812e-21
4.53112474e-21
3.108850016e-21
2.130715239e-21
1.45914889e-21
9.982949856e-22
6.833857793e-22
4.67717267e-22
3.203091997e-22
2.203850012e-22
1.522036959e-22
1.057181187e-22
7.41778612e-23
5.285414157e-23
3.839796982e-23
2.895465038e-23
2.258176714e-23
1.889180028e-23
1.661777726e-23
1.487629689e-23
1.340583069e-23
1.248684637e-23
1.306765129e-23
1.262143258e-23
1.319914205e-23
1.340491488e-23
1.414857813e-23
1.397456936e-23
1.431637566e-23
1.543288837e-23
1.746502396e-23
1.806703089e-23
1.808180747e-23
1.885578027e-23
1.897450576e-23
2.007768245e-23
2.010691321e-23
2.124181579e-23
2.193891205e-23
2.256187546e-23
2.314680464e-23
2.38511715e-23
2.447396156e-23
2.502791781e-23
2.558582811e-23
2.591989763e-23
2.661339558e-23
2.717872492e-23
2.762316277e-23
2.838455157e-23
2.840338864e-23
2.853756781e-23
2.907639724e-23
2.918469593e-23
2.947095959e-23
2.944301025e-23
2.959490912e-23
2.989236666e-23
3.037808226e-23
3.033552144e-23
3.036716968e-23
3.044626118e-23
3.055001573e-23
3.062337356e-23
3.071468985e-23
3.08018154e-23
3.081129738e-23
3.085580767e-23
3.087632235e-23
3.089958847e-23
3.091295438e-23
3.093420077e-23
3.095725028e-23
3.095760518e-23
3.096627023e-23
3.096816375e-23
3.097397153e-23
3.098233246e-23
3.09791929e-23
3.097912182e-23
3.09791022e-23
3.098282778e-23
3.09868846e-23
3.098141002e-23
3.097275119e-23
3.097571734e-23
3.097546191e-23
3.09737879e-23
3.097251853e-23
3.097293872e-23
3.097261249e-23
3.097224539e-23
3.097143509e-23
3.097306877e-23
3.097109653e-23
3.096609337e-23
3.096856106e-23
3.096950087e-23
3.096215933e-23
3.096531173e-23
3.095970336e-23
3.09659711e-23
3.096135552e-23
3.096667348e-23
3.096343815e-23
3.096065483e-23
3.096290436e-23
3.09563302e-23
3.095819457e-23
3.097205917e-23
3.096708724e-23
3.096697289e-23
3.096873958e-23
3.09736384e-23
3.095618489e-23
3.095860744e-23
3.095336326e-23
3.096734167e-23
3.095164972e-23
3.095826683e-23
3.096391642e-23
3.095906053e-23
3.095969832e-23
3.09555063e-23
3.095462673e-23
3.095798629e-23
3.095707964e-23
3.096365078e-23
3.09641507e-23
3.095960326e-23
3.096869226e-23
3.095771068e-23
3.097270901e-23
3.095861984e-23
3.096175403e-23
3.096518964e-23
3.095250997e-23
3.095013839e-23
3.095573299e-23
3.095994539e-23
3.095724319e-23
3.094872471e-23
3.094934256e-23
3.095451877e-23
3.096036189e-23
3.095380906e-23
3.09570939e-23
3.094845828e-23
3.095371592e-23
3.095158213e-23
3.095929376e-23
3.095987573e-23
3.096021853e-23
3.095364646e-23
3.095706192e-23
3.09554255e-23
3.09606351e-23
3.095793644e-23
3.095557596e-23
3.094837778e-23
3.095331987e-23
3.095173258e-23
3.095661921e-23
3.095786625e-23
3.09510846e-23
3.095161956e-23
3.09575173e-23
3.095118289e-23
3.095519367e-23
3.095483793e-23
3.095389725e-23
3.09618529e-23
3.095792675e-23
3.09606976e-23
3.09546613e-23
3.09498887e-23
3.095450256e-23
3.095680055e-23
3.095533642e-23
3.09558879e-23
3.095903685e-23
3.095780228e-23
3.095478457e-23
3.095365382e-23
3.095728619e-23
3.095183387e-23
3.095528871e-23
3.095133054e-23
3.095195615e-23
3.095324806e-23
3.09530899e-23
3.095321942e-23
3.095798233e-23
3.095339152e-23
3.095226718e-23
3.095351986e-23
3.095684299e-23
3.09532892e-23
3.095565536e-23
3.095556035e-23
3.095089834e-23
3.094681387e-23
3.09544801e-23
3.095341242e-23
3.095247345e-23
3.09558364e-23
3.095559673e-23
3.094376428e-23
3.09484229e-23
3.094883727e-23
3.095485366e-23
3.095927955e-23
3.095370823e-23
3.095305783e-23
3.094783904e-23
3.095335254e-23
3.094533453e-23
3.094706071e-23
3.095294453e-23
3.094892829e-23
3.094546651e-23
3.095115691e-23
3.096279541e-23
3.095160379e-23
3.094795303e-23
)
;

boundaryField
{
    inlet
    {
        type            fixedValue;
        value           uniform 0;
    }
    outlet
    {
        type            zeroGradient;
    }
    wall
    {
        type            empty;
    }
}


// ************************************************************************* //
