/*--------------------------------*- C++ -*----------------------------------*\
  =========                 |
  \\      /  F ield         | OpenFOAM: The Open Source CFD Toolbox
   \\    /   O peration     | Website:  https://openfoam.org
    \\  /    A nd           | Version:  7
     \\/     M anipulation  |
\*---------------------------------------------------------------------------*/
FoamFile
{
    version     2.0;
    format      ascii;
    class       volScalarField;
    location    "0.000558243009";
    object      C2H5_0;
}
// * * * * * * * * * * * * * * * * * * * * * * * * * * * * * * * * * * * * * //

dimensions      [0 0 0 0 0 0 0];

internalField   nonuniform List<scalar> 
1500
(
1.662829315e-29
2.839197734e-29
3.106036098e-29
3.126870224e-29
3.113377286e-29
3.099586284e-29
3.090132715e-29
3.084693143e-29
3.081915287e-29
3.080554892e-29
3.079805295e-29
3.079257925e-29
3.078759459e-29
3.078281193e-29
3.077838947e-29
3.077452729e-29
3.077132378e-29
3.076876576e-29
3.076677087e-29
3.07652361e-29
3.076407146e-29
3.07632135e-29
3.076262308e-29
3.076227465e-29
3.076214429e-29
3.076220138e-29
3.076240567e-29
3.076270917e-29
3.076306111e-29
3.076341359e-29
3.076372628e-29
3.07639692e-29
3.076412339e-29
3.076417991e-29
3.076413797e-29
3.076400273e-29
3.076378345e-29
3.07634919e-29
3.076314139e-29
3.076274604e-29
3.07623203e-29
3.076187851e-29
3.076143425e-29
3.076099983e-29
3.07605856e-29
3.076019952e-29
3.075984687e-29
3.075953025e-29
3.07592498e-29
3.075900371e-29
3.075878874e-29
3.075860087e-29
3.075843591e-29
3.075828999e-29
3.07581599e-29
3.075804339e-29
3.075793921e-29
3.075784718e-29
3.075776804e-29
3.075770333e-29
3.075765521e-29
3.075762628e-29
3.075761937e-29
3.075763736e-29
3.075768299e-29
3.075775868e-29
3.075786633e-29
3.075800717e-29
3.075818165e-29
3.075838928e-29
3.075862857e-29
3.075889703e-29
3.075919112e-29
3.075950636e-29
3.07598374e-29
3.076017819e-29
3.076052214e-29
3.076086232e-29
3.076119165e-29
3.076150312e-29
3.076179001e-29
3.076204605e-29
3.076226559e-29
3.076244377e-29
3.07625766e-29
3.076266107e-29
3.076269521e-29
3.076267806e-29
3.076260976e-29
3.076249144e-29
3.076232524e-29
3.076211421e-29
3.076186227e-29
3.076157408e-29
3.076125493e-29
3.076091064e-29
3.076054736e-29
3.076017147e-29
3.075978939e-29
3.075940738e-29
3.075903143e-29
3.075866705e-29
3.075831915e-29
3.07579919e-29
3.075768861e-29
3.075741168e-29
3.075716256e-29
3.075694174e-29
3.075674884e-29
3.075658265e-29
3.075644125e-29
3.07563222e-29
3.075622268e-29
3.075613966e-29
3.075607009e-29
3.075601104e-29
3.075595988e-29
3.075591434e-29
3.075587266e-29
3.075583355e-29
3.075579626e-29
3.075576053e-29
3.075572652e-29
3.075569475e-29
3.075566599e-29
3.075564117e-29
3.07556213e-29
3.075560736e-29
3.075560025e-29
3.075560071e-29
3.075560938e-29
3.075562667e-29
3.075565292e-29
3.075568831e-29
3.075573297e-29
3.075578703e-29
3.075585065e-29
3.075592405e-29
3.075600756e-29
3.075610164e-29
3.075620687e-29
3.075632391e-29
3.075645349e-29
3.075659635e-29
3.07567532e-29
3.075692462e-29
3.075711101e-29
3.075731256e-29
3.075752913e-29
3.075776027e-29
3.075800519e-29
3.07582627e-29
3.075853128e-29
3.075880909e-29
3.075909397e-29
3.075938357e-29
3.075967534e-29
3.075996664e-29
3.076025477e-29
3.076053707e-29
3.076081093e-29
3.076107388e-29
3.076132356e-29
3.07615578e-29
3.076177457e-29
3.076197201e-29
3.076214839e-29
3.076230213e-29
3.076243174e-29
3.076253585e-29
3.076261316e-29
3.07626625e-29
3.076268281e-29
3.076267317e-29
3.076263286e-29
3.07625614e-29
3.076245861e-29
3.076232468e-29
3.076216022e-29
3.076196636e-29
3.07617448e-29
3.076149787e-29
3.07612286e-29
3.076094076e-29
3.076063889e-29
3.076032828e-29
3.076001489e-29
3.075970533e-29
3.075940663e-29
3.075912604e-29
3.075887082e-29
3.075864784e-29
3.075846337e-29
3.075832268e-29
3.075822985e-29
3.075818753e-29
3.075819694e-29
3.075825788e-29
3.075836897e-29
3.075852792e-29
3.075873194e-29
3.075897809e-29
3.075926366e-29
3.075958632e-29
3.075994409e-29
3.076033507e-29
3.076075693e-29
3.076120616e-29
3.07616772e-29
3.076216161e-29
3.07626475e-29
3.076311932e-29
3.076355826e-29
3.076394342e-29
3.076425379e-29
3.076447092e-29
3.076458224e-29
3.076458454e-29
3.076448736e-29
3.076431555e-29
3.076411063e-29
3.076393028e-29
3.076384568e-29
3.076393639e-29
3.076428288e-29
3.076495717e-29
3.076601222e-29
3.07674711e-29
3.076931742e-29
3.077148826e-29
3.077387123e-29
3.077630686e-29
3.077859725e-29
3.078052139e-29
3.078185672e-29
3.078240598e-29
3.078202724e-29
3.078066451e-29
3.077837585e-29
3.077535573e-29
3.077194932e-29
3.076865787e-29
3.076613761e-29
3.076519827e-29
3.076681063e-29
3.077212544e-29
3.078247522e-29
3.079922115e-29
3.082303738e-29
3.085144215e-29
3.086148513e-29
3.086434067e-29
3.086726624e-29
3.087026556e-29
3.087334092e-29
3.08764947e-29
3.087972963e-29
3.088304879e-29
3.088645553e-29
3.088995342e-29
3.08935462e-29
3.089723773e-29
3.090103203e-29
3.090493331e-29
3.090894594e-29
3.091307448e-29
3.091732373e-29
3.092169871e-29
3.092620467e-29
3.093084713e-29
3.093563191e-29
3.094056507e-29
3.094565303e-29
3.095090248e-29
3.095632049e-29
3.096191447e-29
3.096769222e-29
3.097366192e-29
3.09798322e-29
3.098621209e-29
3.099281111e-29
3.099963927e-29
3.100670706e-29
3.101402555e-29
3.102160635e-29
3.102946165e-29
3.10376043e-29
3.104604776e-29
3.105480619e-29
3.106389449e-29
3.107332828e-29
3.108312397e-29
3.109329883e-29
3.110387096e-29
3.111485938e-29
3.112628407e-29
3.113816599e-29
3.115052716e-29
3.116339066e-29
3.117678076e-29
3.119072289e-29
3.120524374e-29
3.122037131e-29
3.123613499e-29
3.125256559e-29
3.12696954e-29
3.128755832e-29
3.130618987e-29
3.132562728e-29
3.13459096e-29
3.136707773e-29
3.138917457e-29
3.141224503e-29
3.14363362e-29
3.14614974e-29
3.14877803e-29
3.151523902e-29
3.154393024e-29
3.157391333e-29
3.160525045e-29
3.163800669e-29
3.16722502e-29
3.170805232e-29
3.174548776e-29
3.178463468e-29
3.182557491e-29
3.186839409e-29
3.191318185e-29
3.196003199e-29
3.200904264e-29
3.206031649e-29
3.211396099e-29
3.217008853e-29
3.222881672e-29
3.229026857e-29
3.235457275e-29
3.242186386e-29
3.249228269e-29
3.256597647e-29
3.264309919e-29
3.272381189e-29
3.280828296e-29
3.28966885e-29
3.298921264e-29
3.30860479e-29
3.318739554e-29
3.329346602e-29
3.34044793e-29
3.352066535e-29
3.364226453e-29
3.376952809e-29
3.39027186e-29
3.404211047e-29
3.418799046e-29
3.434065822e-29
3.450042681e-29
3.466762331e-29
3.48425894e-29
3.5025682e-29
3.521727388e-29
3.541775432e-29
3.562752986e-29
3.584702493e-29
3.607668267e-29
3.631696561e-29
3.656835653e-29
3.683135924e-29
3.710649942e-29
3.739432551e-29
3.769540956e-29
3.801034821e-29
3.833976362e-29
3.86843044e-29
3.904464668e-29
3.942149514e-29
3.981558401e-29
4.022767821e-29
4.065857448e-29
4.110910248e-29
4.1580126e-29
4.207254412e-29
4.258729251e-29
4.312534459e-29
4.368771292e-29
4.42754504e-29
4.488965171e-29
4.553145457e-29
4.620204122e-29
4.690263978e-29
4.763452567e-29
4.839902314e-29
4.919750667e-29
5.003140254e-29
5.090219032e-29
5.181140443e-29
5.276063575e-29
5.375153312e-29
5.478580505e-29
5.586522129e-29
5.69916145e-29
5.816688192e-29
5.939298704e-29
6.067196134e-29
6.200590597e-29
6.339699353e-29
6.48474698e-29
6.635965555e-29
6.793594829e-29
6.957882414e-29
7.129083965e-29
7.307463364e-29
7.493292912e-29
7.686853514e-29
7.888434882e-29
8.098335722e-29
8.316863939e-29
8.544336839e-29
8.781081336e-29
9.027434164e-29
9.283742093e-29
9.550362147e-29
9.827661838e-29
1.011601939e-28
1.0415824e-28
1.072747604e-28
1.105138738e-28
1.13879816e-28
1.173769428e-28
1.210097331e-28
1.247827916e-28
1.287008522e-28
1.32768781e-28
1.369915802e-28
1.413743911e-28
1.459224987e-28
1.506413351e-28
1.555364841e-28
1.606136855e-28
1.658788404e-28
1.713380155e-28
1.769974494e-28
1.828635576e-28
1.889429391e-28
1.952423826e-28
2.017688738e-28
2.085296025e-28
2.155319709e-28
2.227836014e-28
2.302923463e-28
2.380662971e-28
2.461137946e-28
2.544434403e-28
2.630641077e-28
2.719849551e-28
2.812154388e-28
2.907653275e-28
3.006447172e-28
3.108640478e-28
3.214341203e-28
3.323661153e-28
3.436716125e-28
3.553626121e-28
3.674515571e-28
3.79951357e-28
3.928754134e-28
4.062376472e-28
4.200525273e-28
4.343351016e-28
4.491010296e-28
4.64366617e-28
4.801488534e-28
4.964654513e-28
5.133348879e-28
5.307764502e-28
5.488102823e-28
5.674574355e-28
5.867399225e-28
6.066807737e-28
6.273040985e-28
6.486351491e-28
6.707003889e-28
6.935275655e-28
7.171457878e-28
7.415856075e-28
7.66879107e-28
7.930599913e-28
8.201636869e-28
8.482274456e-28
8.772904564e-28
9.073939628e-28
9.385813887e-28
9.708984715e-28
1.004393404e-27
1.039116985e-27
1.075122781e-27
1.112467294e-27
1.151210146e-27
1.191414271e-27
1.233146122e-27
1.276475888e-27
1.321477731e-27
1.368230034e-27
1.416815666e-27
1.46732227e-27
1.519842562e-27
1.574474656e-27
1.631322414e-27
1.690495809e-27
1.752111318e-27
1.816292338e-27
1.883169628e-27
1.952881792e-27
2.02557581e-27
2.101407498e-27
2.180541579e-27
2.263152824e-27
2.349426709e-27
2.439559832e-27
2.533761208e-27
2.632253025e-27
2.735271521e-27
2.843068017e-27
2.955910048e-27
3.074082596e-27
3.197889402e-27
3.327654345e-27
3.46372294e-27
3.606464142e-27
3.756272304e-27
3.91356807e-27
4.078801556e-27
4.252454634e-27
4.435043332e-27
4.627119879e-27
4.829275961e-27
5.042146813e-27
5.266415265e-27
5.502816204e-27
5.7521416e-27
6.01524621e-27
6.293054042e-27
6.586565745e-27
6.896867074e-27
7.225138656e-27
7.572667323e-27
7.940859328e-27
8.331255886e-27
8.745551539e-27
9.185616028e-27
9.653520498e-27
1.015156914e-26
1.068233763e-26
1.124872021e-26
1.185398762e-26
1.250185898e-26
1.319659152e-26
1.394309313e-26
1.474706454e-26
1.561517972e-26
1.655531598e-26
1.757684878e-26
1.869103105e-26
1.991148304e-26
2.125482722e-26
2.274151352e-26
2.439689534e-26
2.625263553e-26
2.834854822e-26
3.073501591e-26
3.34761674e-26
3.665406255e-26
4.037421032e-26
4.477285405e-26
5.00266001e-26
5.636515601e-26
6.408819633e-26
7.358771045e-26
8.537763348e-26
1.001331565e-25
1.187429048e-25
1.423782274e-25
1.725852466e-25
2.114071868e-25
2.615469938e-25
3.265835778e-25
4.112594321e-25
5.218632773e-25
6.667392289e-25
8.569644531e-25
1.107251219e-24
1.437147846e-24
1.87263782e-24
2.448269384e-24
3.209991955e-24
4.218934424e-24
5.556438721e-24
7.330766446e-24
9.68603565e-24
1.281413067e-23
1.697057573e-23
2.249569379e-23
2.984281331e-23
3.961587437e-23
5.261957158e-23
6.992622013e-23
9.296493134e-23
1.236405541e-22
1.644923346e-22
2.189055808e-22
2.913940719e-22
3.879769029e-22
5.166814041e-22
6.882144038e-22
9.168583102e-22
1.221667487e-21
1.628065818e-21
2.169980373e-21
2.89269163e-21
3.856641706e-21
5.142523809e-21
6.858085736e-21
9.147227334e-21
1.220216935e-20
1.627973653e-20
2.172315487e-20
2.899124364e-20
3.869753095e-20
5.166269649e-20
6.89849274e-20
9.213437465e-20
1.230800685e-19
1.644606036e-19
2.198139226e-19
2.938870177e-19
3.930538794e-19
5.258803402e-19
7.038886652e-19
9.425943843e-19
1.262915104e-18
1.693089009e-18
2.271293881e-18
3.049232196e-18
4.097053439e-18
5.51013485e-18
7.418456245e-18
9.999612825e-18
1.349695576e-17
1.824499922e-17
2.470518422e-17
3.351649583e-17
4.556752635e-17
6.209972287e-17
8.4856319e-17
1.162987096e-16
1.599231715e-16
2.207280441e-16
3.059082243e-16
4.258956632e-16
5.95930568e-16
8.384534475e-16
1.186779053e-15
1.690795044e-15
2.42590013e-15
3.507196624e-15
5.112317121e-15
7.518591558e-15
1.116420243e-14
1.674959382e-14
2.540640807e-14
3.897942265e-14
6.049700631e-14
9.495543809e-14
1.506257733e-13
2.4123278e-13
3.895956615e-13
6.337325167e-13
1.037140594e-12
1.706190385e-12
2.819693857e-12
4.679397465e-12
7.796612653e-12
1.304162027e-11
2.190291382e-11
3.694034547e-11
6.258412759e-11
1.065577591e-10
1.824397182e-10
3.143266761e-10
5.454114523e-10
9.539026478e-10
1.682758045e-09
2.995395904e-09
5.380039338e-09
9.744352948e-09
1.777562847e-08
3.260022796e-08
5.997425717e-08
1.103769664e-07
2.027892481e-07
3.705334711e-07
6.734545822e-07
1.213210993e-06
2.161300375e-06
3.763106206e-06
6.448543543e-06
1.080138046e-05
1.753960186e-05
2.729034804e-05
4.011145343e-05
5.503589807e-05
7.052665078e-05
8.527094491e-05
9.833047925e-05
0.0001088601741
0.0001161779192
0.0001194871463
0.0001186621129
0.000113878406
0.0001056338762
9.513835683e-05
8.346039787e-05
7.170035237e-05
6.080860173e-05
5.114446736e-05
4.277244448e-05
3.561181778e-05
2.951869285e-05
2.43452178e-05
1.995188904e-05
1.622002162e-05
1.308441977e-05
1.045519416e-05
8.294451329e-06
6.531357338e-06
5.109456411e-06
3.975337492e-06
3.079687672e-06
2.374618715e-06
1.821696015e-06
1.394070495e-06
1.064993879e-06
8.126935865e-07
6.19860839e-07
4.727148034e-07
3.605726715e-07
2.751035153e-07
2.100904608e-07
1.611579999e-07
1.238157788e-07
9.510507836e-08
7.320278111e-08
5.646082441e-08
4.363703615e-08
3.379480417e-08
2.622642421e-08
2.039791259e-08
1.589793642e-08
1.241855498e-08
9.723207566e-09
7.631158133e-09
6.004107564e-09
4.736071272e-09
3.745707595e-09
2.970493426e-09
2.362295891e-09
1.884001071e-09
1.506944243e-09
1.20894873e-09
9.728272828e-10
7.852354212e-10
6.357929268e-10
5.164098451e-10
4.207686662e-10
3.439259156e-10
2.820051629e-10
2.319601111e-10
1.913914816e-10
1.58405253e-10
1.31502733e-10
1.094951721e-10
9.143732392e-11
7.657565685e-11
6.430791179e-11
5.41514605e-11
4.571850187e-11
3.869657945e-11
3.28332473e-11
2.792397547e-11
2.380259004e-11
2.033369968e-11
1.740668236e-11
1.493089964e-11
1.283187883e-11
1.10482599e-11
9.529347823e-12
8.233145492e-12
7.12476866e-12
6.175165519e-12
5.36007964e-12
4.659207817e-12
4.055514399e-12
3.53467156e-12
3.084601177e-12
2.695098896e-12
2.357524838e-12
2.064548489e-12
1.809937739e-12
1.588384006e-12
1.395356907e-12
1.226983208e-12
1.079945742e-12
9.513988272e-13
8.388973212e-13
7.403369862e-13
6.539042586e-13
5.780338515e-13
5.11372897e-13
4.527505618e-13
4.011522532e-13
3.556976817e-13
3.156221711e-13
2.802607093e-13
2.490343152e-13
2.214383669e-13
1.970325948e-13
1.754324885e-13
1.56301908e-13
1.393467215e-13
1.243093198e-13
1.109638812e-13
9.91122782e-14
8.858053543e-14
7.921576099e-14
7.08834848e-14
6.346534754e-14
5.685709198e-14
5.096681527e-14
4.571344687e-14
4.102542166e-14
3.683952219e-14
3.309986757e-14
2.975702963e-14
2.676725977e-14
2.409181192e-14
2.16963494e-14
1.955042464e-14
1.762702267e-14
1.590216009e-14
1.435453266e-14
1.296520537e-14
1.171733951e-14
1.05959525e-14
9.587706018e-15
8.68071929e-15
7.864404255e-15
7.129320034e-15
6.467044346e-15
5.870059823e-15
5.331653447e-15
4.845827537e-15
4.407220923e-15
4.011039087e-15
3.652992237e-15
3.329240362e-15
3.036344478e-15
2.771223319e-15
2.531114869e-15
2.313542162e-15
2.116282867e-15
1.937342217e-15
1.774928921e-15
1.627433697e-15
1.493410152e-15
1.371557729e-15
1.260706499e-15
1.159803591e-15
1.067901078e-15
9.841451501e-16
9.077664508e-16
8.380714287e-16
7.744346078e-16
7.162916696e-16
6.631332615e-16
6.144994514e-16
5.699747605e-16
5.29183711e-16
4.917868339e-16
4.574770886e-16
4.259766493e-16
3.970340211e-16
3.704214487e-16
3.459325898e-16
3.233804231e-16
3.025953675e-16
2.834235905e-16
2.65725486e-16
2.493743042e-16
2.342549179e-16
2.20262711e-16
2.073025769e-16
1.952880154e-16
1.841403189e-16
1.737878378e-16
1.641653171e-16
1.552132986e-16
1.4687758e-16
1.391087269e-16
1.318616314e-16
1.250951132e-16
1.18771559e-16
1.128565958e-16
1.073187961e-16
1.021294097e-16
9.726212237e-17
9.269283586e-17
8.839946943e-17
8.436177954e-17
8.05611964e-17
7.698067575e-17
7.360456424e-17
7.041847737e-17
6.740918854e-17
6.456452831e-17
6.187329281e-17
5.932516055e-17
5.691061671e-17
5.462088428e-17
5.244786143e-17
5.038406443e-17
4.842257573e-17
4.655699666e-17
4.478140424e-17
4.309031193e-17
4.147863373e-17
3.994165147e-17
3.847498496e-17
3.707456469e-17
3.573660698e-17
3.445759116e-17
3.323423881e-17
3.206349468e-17
3.094250933e-17
2.986862314e-17
2.883935177e-17
2.785237271e-17
2.690551311e-17
2.599673849e-17
2.512414241e-17
2.428593707e-17
2.348044455e-17
2.270608887e-17
2.196138862e-17
2.124495025e-17
2.05554618e-17
1.989168722e-17
1.92524611e-17
1.863668379e-17
1.804331696e-17
1.747137944e-17
1.691994341e-17
1.638813088e-17
1.587511044e-17
1.538009425e-17
1.490233523e-17
1.444112451e-17
1.399578902e-17
1.356568927e-17
1.315021733e-17
1.274879487e-17
1.23608714e-17
1.198592268e-17
1.162344908e-17
1.127297427e-17
1.093404379e-17
1.060622388e-17
1.028910029e-17
9.982277234e-18
9.68537634e-18
9.398035745e-18
9.119909199e-18
8.850665249e-18
8.589986464e-18
8.337568714e-18
8.093120493e-18
7.856362283e-18
7.627025956e-18
7.404854213e-18
7.189600061e-18
6.981026313e-18
6.778905121e-18
6.583017534e-18
6.393153088e-18
6.209109409e-18
6.030691847e-18
5.857713125e-18
5.689993009e-18
5.527357997e-18
5.369641022e-18
5.216681173e-18
5.068323431e-18
4.924418412e-18
4.784822137e-18
4.649395798e-18
4.518005545e-18
4.390522289e-18
4.266821492e-18
4.146783e-18
4.030290852e-18
3.917233124e-18
3.807501761e-18
3.700992428e-18
3.597604367e-18
3.497240256e-18
3.399806076e-18
3.305210986e-18
3.213367205e-18
3.12418989e-18
3.037597035e-18
2.953509356e-18
2.871850197e-18
2.792545431e-18
2.715523367e-18
2.640714661e-18
2.568052234e-18
2.497471187e-18
2.428908726e-18
2.362304083e-18
2.297598449e-18
2.234734902e-18
2.173658342e-18
2.114315427e-18
2.05665451e-18
2.000625584e-18
1.946180222e-18
1.893271527e-18
1.841854073e-18
1.791883863e-18
1.743318273e-18
1.696116012e-18
1.650237073e-18
1.60564269e-18
1.562295301e-18
1.520158501e-18
1.479197009e-18
1.43937663e-18
1.400664215e-18
1.363027635e-18
1.326435738e-18
1.290858325e-18
1.256266114e-18
1.222630711e-18
1.189924584e-18
1.158121032e-18
1.127194161e-18
1.097118856e-18
1.067870757e-18
1.039426233e-18
1.011762363e-18
9.84856911e-19
9.586883018e-19
9.332356045e-19
9.0847851e-19
8.843973119e-19
8.609728868e-19
8.381866777e-19
8.160206745e-19
7.944573978e-19
7.734798833e-19
7.530716641e-19
7.33216757e-19
7.138996457e-19
6.95105268e-19
6.76819001e-19
6.590266481e-19
6.417144255e-19
6.248689503e-19
6.084772277e-19
5.925266389e-19
5.7700493e-19
5.619002013e-19
5.472008962e-19
5.32895791e-19
5.189739841e-19
5.054248874e-19
4.922382165e-19
4.794039815e-19
4.669124783e-19
4.547542799e-19
4.429202276e-19
4.31401424e-19
4.201892249e-19
4.092752316e-19
3.986512833e-19
3.883094513e-19
3.782420308e-19
3.684415349e-19
3.589006882e-19
3.496124199e-19
3.405698591e-19
3.317663274e-19
3.231953343e-19
3.148505716e-19
3.067259078e-19
2.988153829e-19
2.911132041e-19
2.8361374e-19
2.763115162e-19
2.692012109e-19
2.622776511e-19
2.555358068e-19
2.489707881e-19
2.42577841e-19
2.363523425e-19
2.302897984e-19
2.243858385e-19
2.186362134e-19
2.130367908e-19
2.075835526e-19
2.022725911e-19
1.971001062e-19
1.920624025e-19
1.871558858e-19
1.823770604e-19
1.777225269e-19
1.731889786e-19
1.687731991e-19
1.644720603e-19
1.602825191e-19
1.562016156e-19
1.522264706e-19
1.48354283e-19
1.445823284e-19
1.40907956e-19
1.37328587e-19
1.338417127e-19
1.304448923e-19
1.271357511e-19
1.239119787e-19
1.20771327e-19
1.177116086e-19
1.147306953e-19
1.118265162e-19
1.089970559e-19
1.062403536e-19
1.035545009e-19
1.009376411e-19
9.838796712e-20
9.590372044e-20
9.348318929e-20
9.11247081e-20
8.8826656e-20
8.658745501e-20
8.440556962e-20
8.227950512e-20
8.020780683e-20
7.818905866e-20
7.622188242e-20
7.430493657e-20
7.24369153e-20
7.061654725e-20
6.884259495e-20
6.711385375e-20
6.542915106e-20
6.37873453e-20
6.218732498e-20
6.062800807e-20
5.910834113e-20
5.762729844e-20
5.618388166e-20
5.477711862e-20
5.340606282e-20
5.20697926e-20
5.076741056e-20
4.949804281e-20
4.826083866e-20
4.705496974e-20
4.587962919e-20
4.473403153e-20
4.361741149e-20
4.252902423e-20
4.146814431e-20
4.04340651e-20
3.94260986e-20
3.844357468e-20
3.748584063e-20
3.655226084e-20
3.564221623e-20
3.47551037e-20
3.389033591e-20
3.304734084e-20
3.222556109e-20
3.142445382e-20
3.064349026e-20
2.988215522e-20
2.913994682e-20
2.841637606e-20
2.771096658e-20
2.702325431e-20
2.635278685e-20
2.569912366e-20
2.506183523e-20
2.444050306e-20
2.383471923e-20
2.324408618e-20
2.266821657e-20
2.210673248e-20
2.155926556e-20
2.102545685e-20
2.050495617e-20
1.999742196e-20
1.950252123e-20
1.901992913e-20
1.854932862e-20
1.809041026e-20
1.764287217e-20
1.720641956e-20
1.678076468e-20
1.636562617e-20
1.596072944e-20
1.556580595e-20
1.518059324e-20
1.480483462e-20
1.443827888e-20
1.408068027e-20
1.373179799e-20
1.339139626e-20
1.305924375e-20
1.27351137e-20
1.24187836e-20
1.211003487e-20
1.18086527e-20
1.151442605e-20
1.12271472e-20
1.094661169e-20
1.067261813e-20
1.040496812e-20
1.014346632e-20
9.887920092e-21
9.638139743e-21
9.393938553e-21
9.155132848e-21
8.92154243e-21
8.692990567e-21
8.469304682e-21
8.250316648e-21
8.035863117e-21
7.82578573e-21
7.619931161e-21
7.418149686e-21
7.220293244e-21
5.640766182e-21
3.98725088e-21
2.824075764e-21
2.000234564e-21
1.415710489e-21
1.001009249e-21
7.069877325e-22
4.987215136e-22
3.513587832e-22
2.47212256e-22
1.736993781e-22
1.218773517e-22
8.539444609e-23
5.974595441e-23
4.17398256e-23
2.911728675e-23
2.028128543e-23
1.410558716e-23
9.795644817e-24
6.792342514e-24
4.702957464e-24
3.251323787e-24
2.244374491e-24
1.54718534e-24
1.065002524e-24
7.321506455e-25
5.026335095e-25
3.446554042e-25
2.360535984e-25
1.615099586e-25
1.103890337e-25
7.54326817e-26
5.151475551e-26
3.517625827e-26
2.407146127e-26
1.650101723e-26
1.134504268e-26
7.8444058e-27
5.473590358e-27
3.866268878e-27
2.799206991e-27
2.078342216e-27
1.629860513e-27
1.341229339e-27
1.134371469e-27
9.77291576e-28
8.763645315e-28
8.853295605e-28
8.391118354e-28
8.649922038e-28
8.716687114e-28
9.16461322e-28
9.041581919e-28
9.264966153e-28
9.998640613e-28
1.134330134e-27
1.17618765e-27
1.179994373e-27
1.234401485e-27
1.245425881e-27
1.322017187e-27
1.327069061e-27
1.405877791e-27
1.45560296e-27
1.500449751e-27
1.542804978e-27
1.593142082e-27
1.638006213e-27
1.678192864e-27
1.718658774e-27
1.743792229e-27
1.793245946e-27
1.833840759e-27
1.866113165e-27
1.920010175e-27
1.923214426e-27
1.934093642e-27
1.972564629e-27
1.981352508e-27
2.002399128e-27
2.001677072e-27
2.013251678e-27
2.034498651e-27
2.068590117e-27
2.066444409e-27
2.06939301e-27
2.075449308e-27
2.083120305e-27
2.088618595e-27
2.09529044e-27
2.101618182e-27
2.102594521e-27
2.105918208e-27
2.107561172e-27
2.109350164e-27
2.110430062e-27
2.112022622e-27
2.113710513e-27
2.113819772e-27
2.114481078e-27
2.11466043e-27
2.115091929e-27
2.115685505e-27
2.115480151e-27
2.115476221e-27
2.115467438e-27
2.115706682e-27
2.115966363e-27
2.115566774e-27
2.114950696e-27
2.115126145e-27
2.115080125e-27
2.114938174e-27
2.114822734e-27
2.114826695e-27
2.114778867e-27
2.114730464e-27
2.114654203e-27
2.114747506e-27
2.114596632e-27
2.114239811e-27
2.11439695e-27
2.11445136e-27
2.113939113e-27
2.114149497e-27
2.113756984e-27
2.114181308e-27
2.113858065e-27
2.114217877e-27
2.113990872e-27
2.113795024e-27
2.113944141e-27
2.113487476e-27
2.113607465e-27
2.114548256e-27
2.114199053e-27
2.114184176e-27
2.114295309e-27
2.114621959e-27
2.113419902e-27
2.113578529e-27
2.113208991e-27
2.114157537e-27
2.113073685e-27
2.113517542e-27
2.113896078e-27
2.113556085e-27
2.113589863e-27
2.113297484e-27
2.113230342e-27
2.113453748e-27
2.113385305e-27
2.113830557e-27
2.113858186e-27
2.113541454e-27
2.114158392e-27
2.11340202e-27
2.114424313e-27
2.113455995e-27
2.113667556e-27
2.113899066e-27
2.113030371e-27
2.112864307e-27
2.113242941e-27
2.113528996e-27
2.113342027e-27
2.112758258e-27
2.112797542e-27
2.11314846e-27
2.113542764e-27
2.113093888e-27
2.11331593e-27
2.112723895e-27
2.113081238e-27
2.112932645e-27
2.113457199e-27
2.113493591e-27
2.113515662e-27
2.113064761e-27
2.113296995e-27
2.113182973e-27
2.113538181e-27
2.113352658e-27
2.113191824e-27
2.112698103e-27
2.113037523e-27
2.112927791e-27
2.113261971e-27
2.113346557e-27
2.11288483e-27
2.112920403e-27
2.113323099e-27
2.112892749e-27
2.113166335e-27
2.11314309e-27
2.113080062e-27
2.113624702e-27
2.113357128e-27
2.113547806e-27
2.113138409e-27
2.112814454e-27
2.113129847e-27
2.113287292e-27
2.113189004e-27
2.113228171e-27
2.113443807e-27
2.113360384e-27
2.113154456e-27
2.113078453e-27
2.113327324e-27
2.112954928e-27
2.113190599e-27
2.112921427e-27
2.112963664e-27
2.113051119e-27
2.113038831e-27
2.113047642e-27
2.113371424e-27
2.113057439e-27
2.112979363e-27
2.113063274e-27
2.113288512e-27
2.113044418e-27
2.113204135e-27
2.113195945e-27
2.112876319e-27
2.112595401e-27
2.113116718e-27
2.113041739e-27
2.112975586e-27
2.113203341e-27
2.113185204e-27
2.11237604e-27
2.112691888e-27
2.112718788e-27
2.113126398e-27
2.113426487e-27
2.113045534e-27
2.113000078e-27
2.112642504e-27
2.113018209e-27
2.112469321e-27
2.112586407e-27
2.112986215e-27
2.112711491e-27
2.112475463e-27
2.112862661e-27
2.113654333e-27
2.112889838e-27
2.112642478e-27
)
;

boundaryField
{
    inlet
    {
        type            fixedValue;
        value           uniform 0;
    }
    outlet
    {
        type            zeroGradient;
    }
    wall
    {
        type            empty;
    }
}


// ************************************************************************* //
