/*--------------------------------*- C++ -*----------------------------------*\
  =========                 |
  \\      /  F ield         | OpenFOAM: The Open Source CFD Toolbox
   \\    /   O peration     | Website:  https://openfoam.org
    \\  /    A nd           | Version:  7
     \\/     M anipulation  |
\*---------------------------------------------------------------------------*/
FoamFile
{
    version     2.0;
    format      ascii;
    class       volScalarField;
    location    "0.000558243009";
    object      C2H5O;
}
// * * * * * * * * * * * * * * * * * * * * * * * * * * * * * * * * * * * * * //

dimensions      [0 0 0 0 0 0 0];

internalField   nonuniform List<scalar> 
1500
(
7.235181036e-21
2.827120866e-20
5.829935421e-20
8.736147331e-20
1.088827401e-19
1.219173611e-19
1.286286258e-19
1.316377856e-19
1.328328349e-19
1.332588526e-19
1.333967149e-19
1.334376177e-19
1.334488571e-19
1.33451761e-19
1.334524923e-19
1.33452691e-19
1.33452762e-19
1.334527996e-19
1.334528251e-19
1.334528442e-19
1.334528586e-19
1.334528693e-19
1.334528768e-19
1.334528814e-19
1.334528834e-19
1.334528831e-19
1.334528811e-19
1.334528779e-19
1.334528741e-19
1.334528703e-19
1.334528669e-19
1.334528645e-19
1.334528631e-19
1.334528628e-19
1.334528637e-19
1.334528658e-19
1.334528688e-19
1.334528727e-19
1.334528772e-19
1.334528823e-19
1.334528877e-19
1.334528934e-19
1.33452899e-19
1.334529045e-19
1.334529098e-19
1.334529147e-19
1.334529192e-19
1.334529233e-19
1.33452927e-19
1.334529303e-19
1.334529332e-19
1.334529358e-19
1.334529381e-19
1.334529403e-19
1.334529422e-19
1.334529441e-19
1.334529457e-19
1.334529473e-19
1.334529487e-19
1.334529499e-19
1.334529509e-19
1.334529517e-19
1.334529522e-19
1.334529524e-19
1.334529522e-19
1.334529517e-19
1.334529508e-19
1.334529494e-19
1.334529477e-19
1.334529456e-19
1.33452943e-19
1.334529401e-19
1.334529369e-19
1.334529335e-19
1.334529298e-19
1.334529261e-19
1.334529223e-19
1.334529185e-19
1.334529149e-19
1.334529116e-19
1.334529085e-19
1.334529057e-19
1.334529035e-19
1.334529017e-19
1.334529004e-19
1.334528997e-19
1.334528997e-19
1.334529002e-19
1.334529013e-19
1.33452903e-19
1.334529053e-19
1.334529082e-19
1.334529115e-19
1.334529152e-19
1.334529193e-19
1.334529237e-19
1.334529283e-19
1.334529331e-19
1.33452938e-19
1.334529428e-19
1.334529476e-19
1.334529523e-19
1.334529567e-19
1.33452961e-19
1.334529649e-19
1.334529685e-19
1.334529718e-19
1.334529747e-19
1.334529773e-19
1.334529795e-19
1.334529815e-19
1.334529831e-19
1.334529845e-19
1.334529857e-19
1.334529866e-19
1.334529875e-19
1.334529882e-19
1.334529888e-19
1.334529894e-19
1.334529899e-19
1.334529904e-19
1.334529908e-19
1.334529912e-19
1.334529916e-19
1.33452992e-19
1.334529923e-19
1.334529926e-19
1.334529928e-19
1.334529929e-19
1.33452993e-19
1.33452993e-19
1.33452993e-19
1.334529929e-19
1.334529927e-19
1.334529924e-19
1.33452992e-19
1.334529916e-19
1.334529911e-19
1.334529905e-19
1.334529898e-19
1.33452989e-19
1.33452988e-19
1.33452987e-19
1.334529858e-19
1.334529844e-19
1.334529829e-19
1.334529812e-19
1.334529793e-19
1.334529773e-19
1.334529751e-19
1.334529727e-19
1.334529701e-19
1.334529674e-19
1.334529646e-19
1.334529616e-19
1.334529586e-19
1.334529556e-19
1.334529525e-19
1.334529494e-19
1.334529464e-19
1.334529434e-19
1.334529405e-19
1.334529378e-19
1.334529352e-19
1.334529328e-19
1.334529306e-19
1.334529287e-19
1.334529269e-19
1.334529255e-19
1.334529243e-19
1.334529235e-19
1.33452923e-19
1.334529228e-19
1.33452923e-19
1.334529236e-19
1.334529245e-19
1.334529258e-19
1.334529275e-19
1.334529296e-19
1.334529321e-19
1.334529349e-19
1.33452938e-19
1.334529414e-19
1.334529451e-19
1.334529489e-19
1.334529529e-19
1.334529569e-19
1.334529609e-19
1.334529649e-19
1.334529686e-19
1.33452972e-19
1.334529751e-19
1.334529778e-19
1.3345298e-19
1.334529815e-19
1.334529825e-19
1.334529828e-19
1.334529825e-19
1.334529815e-19
1.334529799e-19
1.334529777e-19
1.334529749e-19
1.334529716e-19
1.334529679e-19
1.334529637e-19
1.334529592e-19
1.334529544e-19
1.334529493e-19
1.334529441e-19
1.334529387e-19
1.334529333e-19
1.334529279e-19
1.334529226e-19
1.334529177e-19
1.334529131e-19
1.334529091e-19
1.334529057e-19
1.33452903e-19
1.33452901e-19
1.334528996e-19
1.334528986e-19
1.334528978e-19
1.334528967e-19
1.334528949e-19
1.334528917e-19
1.334528866e-19
1.334528791e-19
1.334528686e-19
1.33452855e-19
1.334528381e-19
1.334528181e-19
1.334527957e-19
1.334527717e-19
1.334527471e-19
1.334527234e-19
1.334527019e-19
1.334526841e-19
1.334526712e-19
1.33452664e-19
1.334526637e-19
1.334526729e-19
1.334527011e-19
1.334527808e-19
1.334530094e-19
1.334536497e-19
1.33455331e-19
1.334593658e-19
1.334680055e-19
1.334838566e-19
1.335062465e-19
1.335133788e-19
1.335156197e-19
1.33517948e-19
1.335203685e-19
1.335228846e-19
1.335254998e-19
1.33528218e-19
1.335310432e-19
1.335339802e-19
1.335370336e-19
1.335402086e-19
1.335435105e-19
1.335469448e-19
1.335505173e-19
1.335542341e-19
1.335581015e-19
1.335621264e-19
1.335663157e-19
1.335706768e-19
1.335752176e-19
1.335799462e-19
1.335848713e-19
1.335900019e-19
1.335953475e-19
1.336009183e-19
1.336067248e-19
1.336127781e-19
1.336190902e-19
1.336256732e-19
1.336325405e-19
1.336397056e-19
1.336471834e-19
1.33654989e-19
1.336631389e-19
1.336716501e-19
1.336805408e-19
1.336898302e-19
1.336995386e-19
1.337096875e-19
1.337202995e-19
1.337313987e-19
1.337430105e-19
1.337551618e-19
1.33767881e-19
1.337811984e-19
1.33795146e-19
1.338097575e-19
1.338250688e-19
1.33841118e-19
1.338579452e-19
1.338755933e-19
1.338941074e-19
1.339135355e-19
1.339339285e-19
1.339553402e-19
1.339778277e-19
1.340014516e-19
1.340262762e-19
1.340523695e-19
1.340798036e-19
1.341086551e-19
1.34139005e-19
1.341709392e-19
1.342045488e-19
1.342399302e-19
1.342771858e-19
1.343164238e-19
1.343577588e-19
1.344013125e-19
1.344472133e-19
1.344955975e-19
1.345466092e-19
1.346004008e-19
1.346571338e-19
1.347169788e-19
1.347801162e-19
1.348467368e-19
1.349170423e-19
1.349912456e-19
1.350695718e-19
1.351522584e-19
1.352395563e-19
1.353317301e-19
1.354290591e-19
1.355318375e-19
1.356403759e-19
1.357550013e-19
1.358760582e-19
1.360039093e-19
1.361389367e-19
1.362815419e-19
1.364321478e-19
1.365911984e-19
1.367591607e-19
1.369365251e-19
1.371238065e-19
1.373215454e-19
1.375303086e-19
1.377506906e-19
1.379833145e-19
1.382288329e-19
1.384879293e-19
1.38761319e-19
1.390497501e-19
1.393540052e-19
1.396749016e-19
1.400132936e-19
1.403700727e-19
1.407461692e-19
1.411425535e-19
1.41560237e-19
1.420002733e-19
1.424637598e-19
1.429518383e-19
1.434656966e-19
1.440065694e-19
1.445757396e-19
1.451745394e-19
1.458043514e-19
1.464666097e-19
1.471628008e-19
1.478944651e-19
1.486631974e-19
1.49470648e-19
1.503185237e-19
1.512085888e-19
1.521426656e-19
1.531226356e-19
1.541504396e-19
1.552280791e-19
1.563576162e-19
1.575411748e-19
1.587809403e-19
1.600791606e-19
1.614381462e-19
1.628602701e-19
1.643479682e-19
1.659037396e-19
1.675301457e-19
1.692298108e-19
1.710054215e-19
1.728597263e-19
1.747955351e-19
1.768157185e-19
1.789232073e-19
1.811209914e-19
1.83412119e-19
1.857996954e-19
1.882868817e-19
1.908768936e-19
1.935729998e-19
1.963785205e-19
1.992968256e-19
2.023313329e-19
2.054855057e-19
2.087628513e-19
2.121669185e-19
2.157012951e-19
2.193696054e-19
2.231755079e-19
2.271226921e-19
2.312148761e-19
2.354558036e-19
2.398492404e-19
2.44398972e-19
2.491087995e-19
2.539825372e-19
2.590240085e-19
2.642370427e-19
2.696254716e-19
2.751931258e-19
2.809438309e-19
2.868814043e-19
2.930096511e-19
2.993323607e-19
3.058533028e-19
3.125762243e-19
3.195048451e-19
3.266428546e-19
3.339939086e-19
3.41561625e-19
3.493495813e-19
3.573613106e-19
3.656002989e-19
3.740699815e-19
3.827737406e-19
3.917149022e-19
4.008967338e-19
4.103224416e-19
4.199951686e-19
4.299179929e-19
4.400939253e-19
4.505259086e-19
4.612168159e-19
4.721694501e-19
4.833865435e-19
4.94870757e-19
5.06624681e-19
5.186508356e-19
5.309516717e-19
5.435295723e-19
5.563868544e-19
5.695257715e-19
5.82948516e-19
5.966572229e-19
6.106539732e-19
6.249407987e-19
6.395196865e-19
6.543925849e-19
6.695614092e-19
6.850280485e-19
7.007943732e-19
7.168622428e-19
7.332335149e-19
7.499100543e-19
7.668937433e-19
7.841864925e-19
8.017902524e-19
8.197070259e-19
8.379388813e-19
8.564879665e-19
8.753565235e-19
8.945469043e-19
9.140615874e-19
9.339031953e-19
9.540745123e-19
9.745785045e-19
9.954183391e-19
1.016597406e-18
1.03811934e-18
1.059988044e-18
1.08220771e-18
1.104782851e-18
1.12771832e-18
1.15101934e-18
1.174691532e-18
1.198740946e-18
1.223174088e-18
1.247997955e-18
1.273220063e-18
1.298848485e-18
1.324891885e-18
1.351359553e-18
1.378261442e-18
1.405608208e-18
1.433411248e-18
1.461682742e-18
1.490435696e-18
1.519683984e-18
1.549442394e-18
1.579726673e-18
1.610553576e-18
1.641940915e-18
1.673907607e-18
1.706473731e-18
1.739660575e-18
1.773490698e-18
1.80798798e-18
1.843177686e-18
1.879086522e-18
1.915742701e-18
1.953176006e-18
1.991417856e-18
2.03050137e-18
2.070461454e-18
2.111334859e-18
2.153160252e-18
2.195978297e-18
2.239831741e-18
2.284765494e-18
2.330826716e-18
2.378064909e-18
2.426532008e-18
2.476282472e-18
2.52737339e-18
2.579864573e-18
2.633818672e-18
2.689301286e-18
2.746381069e-18
2.805129878e-18
2.865622901e-18
2.9279388e-18
2.992159868e-18
3.058372205e-18
3.126665896e-18
3.197135197e-18
3.269878746e-18
3.344999803e-18
3.422606516e-18
3.502812211e-18
3.585735722e-18
3.67150176e-18
3.760241336e-18
3.85209224e-18
3.947199602e-18
4.04571653e-18
4.147804858e-18
4.253636024e-18
4.363392095e-18
4.477266977e-18
4.595467853e-18
4.718216879e-18
4.845753221e-18
4.978335471e-18
5.116244551e-18
5.259787192e-18
5.409300112e-18
5.565155055e-18
5.727764853e-18
5.897590747e-18
6.075151237e-18
6.261032764e-18
6.45590266e-18
6.660524807e-18
6.875778617e-18
7.10268204e-18
7.342419456e-18
7.596375509e-18
7.866176169e-18
8.15373855e-18
8.461331406e-18
8.791648563e-18
9.1478981e-18
9.533910656e-18
9.954270973e-18
1.041447769e-17
1.092113743e-17
1.148220067e-17
1.210724816e-17
1.280783904e-17
1.359793372e-17
1.449440767e-17
1.551767576e-17
1.669245074e-17
1.804866484e-17
1.962258958e-17
2.145819628e-17
2.360880913e-17
2.613911359e-17
2.912759658e-17
3.266951119e-17
3.688047862e-17
4.190086417e-17
4.790109368e-17
5.508811225e-17
6.371323062e-17
7.408165711e-17
8.656407699e-17
1.016107187e-16
1.19768441e-16
1.417014883e-16
1.682167026e-16
2.002941474e-16
2.391243037e-16
2.861532488e-16
3.431375285e-16
4.122108015e-16
4.959647781e-16
5.975475176e-16
7.207828021e-16
8.703151008e-16
1.051785606e-15
1.272045989e-15
1.539417952e-15
1.864008366e-15
2.258091889e-15
2.736575481e-15
3.317562321e-15
4.023036339e-15
4.879693123e-15
5.91994841e-15
7.183162025e-15
8.717123147e-15
1.057985254e-14
1.284178914e-14
1.558844267e-14
1.892361119e-14
2.297328332e-14
2.789037014e-14
3.38604421e-14
4.110868326e-14
4.990831906e-14
6.059082796e-14
7.355831083e-14
8.929847025e-14
1.084027442e-13
1.315882511e-13
1.597243364e-13
1.938646717e-13
2.352860485e-13
2.855352377e-13
3.464855555e-13
4.204051005e-13
5.100390054e-13
6.187084958e-13
7.504300738e-13
9.100587574e-13
1.10346002e-12
1.337715897e-12
1.621371657e-12
1.964730528e-12
2.380205131e-12
2.882735627e-12
3.490286024e-12
4.224431628e-12
5.111052246e-12
6.181147346e-12
7.471790959e-12
9.027245434e-12
1.090025423e-11
1.315353445e-11
1.586148968e-11
1.911216243e-11
2.300944337e-11
2.767555005e-11
3.325378207e-11
3.991154928e-11
4.784365443e-11
5.727578733e-11
6.846815005e-11
8.17190828e-11
9.736850411e-11
1.158009448e-10
1.374479889e-10
1.627900883e-10
1.923579948e-10
2.26734296e-10
2.66555347e-10
3.125125677e-10
3.653489889e-10
4.258422291e-10
4.947610005e-10
5.727842559e-10
6.603889238e-10
7.577523862e-10
8.647791773e-10
9.814250258e-10
1.108498859e-09
1.248994636e-09
1.409692541e-09
1.602377547e-09
1.84397013e-09
2.155836145e-09
2.564510355e-09
3.106773399e-09
3.839669866e-09
4.853909713e-09
6.290325702e-09
8.364744878e-09
1.139450869e-08
1.587158894e-08
2.250907942e-08
3.236564515e-08
4.670146759e-08
6.781002539e-08
9.793253757e-08
1.388385954e-07
1.897016607e-07
2.443934022e-07
2.919686282e-07
3.239569333e-07
3.395811284e-07
3.424523565e-07
3.365140943e-07
3.244709686e-07
3.085099189e-07
2.892321147e-07
2.67042723e-07
2.4198651e-07
2.15509548e-07
1.884572716e-07
1.622079484e-07
1.379391794e-07
1.163403468e-07
9.725866941e-08
8.056060889e-08
6.602948341e-08
5.347690967e-08
4.272140137e-08
3.356455612e-08
2.601261051e-08
1.983687469e-08
1.494936976e-08
1.11401532e-08
8.224993209e-09
6.029016195e-09
4.397700834e-09
3.184587112e-09
2.29217054e-09
1.645399259e-09
1.178920198e-09
8.434978567e-10
6.028720543e-10
4.30577465e-10
3.072899595e-10
2.190388191e-10
1.560512302e-10
1.119888178e-10
8.048165225e-11
5.76433928e-11
4.135400537e-11
2.972097278e-11
2.139940346e-11
1.543608676e-11
1.115516285e-11
8.08045369e-12
5.863338736e-12
4.263845919e-12
3.107927265e-12
2.27104377e-12
1.663960128e-12
1.222654844e-12
9.011377307e-13
6.66328508e-13
4.944002689e-13
3.681659732e-13
2.752085995e-13
2.065420537e-13
1.556512542e-13
1.178033159e-13
8.955272936e-14
6.83854646e-14
5.246268401e-14
4.043591221e-14
3.13135431e-14
2.436426752e-14
1.904708588e-14
1.496049074e-14
1.180549337e-14
9.358663949e-15
7.452427661e-15
5.960628218e-15
4.787922975e-15
3.861971181e-15
3.127663005e-15
2.542843253e-15
2.07513262e-15
1.699557012e-15
1.396773525e-15
1.151738249e-15
9.527022823e-16
7.904523135e-16
6.577340498e-16
5.488128172e-16
4.591374153e-16
3.850819759e-16
3.2374696e-16
2.728051553e-16
2.303820403e-16
1.949624929e-16
1.653177668e-16
1.404481207e-16
1.195375789e-16
1.019181291e-16
8.704128859e-17
7.44554447e-17
6.378773402e-17
5.472950462e-17
4.702461454e-17
4.045998361e-17
3.485794147e-17
3.007001171e-17
2.597184825e-17
2.245909863e-17
1.944401548e-17
1.68526736e-17
1.46226785e-17
1.270127511e-17
1.104378294e-17
9.612298529e-18
8.374617009e-18
7.303333978e-18
6.37509593e-18
5.569973466e-18
4.870936152e-18
4.263411739e-18
3.734915529e-18
3.274738193e-18
2.873682382e-18
2.523840157e-18
2.218404618e-18
1.951510238e-18
1.718097341e-18
1.513796904e-18
1.33483251e-18
1.177936785e-18
1.040280097e-18
9.194096354e-19
8.131973002e-19
7.197950826e-19
6.375968071e-19
5.652053004e-19
5.014041828e-19
4.451336106e-19
3.954693918e-19
3.516049904e-19
3.128360044e-19
2.78546765e-19
2.481987574e-19
2.213206058e-19
1.974994043e-19
1.763732063e-19
1.576245125e-19
1.409746196e-19
1.261787125e-19
1.130215985e-19
1.013139973e-19
9.088931057e-20
8.160080905e-20
7.331917931e-20
6.593038436e-20
5.933379547e-20
5.344056036e-20
4.817217657e-20
4.345924347e-20
3.924036972e-20
3.546121638e-20
3.207365808e-20
2.903504724e-20
2.630756852e-20
2.385767163e-20
2.165557317e-20
1.967481842e-20
1.789189595e-20
1.62858982e-20
1.483822266e-20
1.35323084e-20
1.235340375e-20
1.128836131e-20
1.032545696e-20
9.45422998e-21
8.665341766e-21
7.950450822e-21
7.302102216e-21
6.713629676e-21
6.179068878e-21
5.693080596e-21
5.250882551e-21
4.848188964e-21
4.481156859e-21
4.146338457e-21
3.840638758e-21
3.561277949e-21
3.305757879e-21
3.071832276e-21
2.857480208e-21
2.660882427e-21
2.480400346e-21
2.314557211e-21
2.162021376e-21
2.021591311e-21
1.892182277e-21
1.772814395e-21
1.662601969e-21
1.560743937e-21
1.466515364e-21
1.379259794e-21
1.298382406e-21
1.223343886e-21
1.153654947e-21
1.088871385e-21
1.028589682e-21
9.724430199e-22
9.200977279e-22
8.7125008e-22
8.256234215e-22
7.829655643e-22
7.430464936e-22
7.056562424e-22
6.706030234e-22
6.37711506e-22
6.068213074e-22
5.777855993e-22
5.504698704e-22
5.247507826e-22
5.005151768e-22
4.776591338e-22
4.560871571e-22
4.357114175e-22
4.164510784e-22
3.98231662e-22
3.809845199e-22
3.646463072e-22
3.491585283e-22
3.344671277e-22
3.205221051e-22
3.072771747e-22
2.946894552e-22
2.827191928e-22
2.713294864e-22
2.604860741e-22
2.501571009e-22
2.403129428e-22
2.309260106e-22
2.219705988e-22
2.134227386e-22
2.052600549e-22
1.974616514e-22
1.900079913e-22
1.82880798e-22
1.760629637e-22
1.695384526e-22
1.632922369e-22
1.57310204e-22
1.515791031e-22
1.460864824e-22
1.408206326e-22
1.357705323e-22
1.30925802e-22
1.262766591e-22
1.218138731e-22
1.175287373e-22
1.134130282e-22
1.094589782e-22
1.056592391e-22
1.020068592e-22
9.849525444e-23
9.511819337e-23
9.186976435e-23
8.87443667e-23
8.573668462e-23
8.28416721e-23
8.005453347e-23
7.737070763e-23
7.478586782e-23
7.229589077e-23
6.989685479e-23
6.758502374e-23
6.535684082e-23
6.320891773e-23
6.113802038e-23
5.914106726e-23
5.721511606e-23
5.535735892e-23
5.356511517e-23
5.183582379e-23
5.016703518e-23
4.855641237e-23
4.700171706e-23
4.550080993e-23
4.405164301e-23
4.265225547e-23
4.130076995e-23
3.999539027e-23
3.873439459e-23
3.751613359e-23
3.633902509e-23
3.520155405e-23
3.410226516e-23
3.303976384e-23
3.201271169e-23
3.101982301e-23
3.005986577e-23
2.913165436e-23
2.823405262e-23
2.736596834e-23
2.652635358e-23
2.571419909e-23
2.492853415e-23
2.416842826e-23
2.343298486e-23
2.272134312e-23
2.203267351e-23
2.136617709e-23
2.072109021e-23
2.009667362e-23
1.949221608e-23
1.890703395e-23
1.834046786e-23
1.779188491e-23
1.726067462e-23
1.67462482e-23
1.624803794e-23
1.576549808e-23
1.529810295e-23
1.484534555e-23
1.440673716e-23
1.398180661e-23
1.357009972e-23
1.317117642e-23
1.278461614e-23
1.241001e-23
1.204696569e-23
1.169510296e-23
1.135405688e-23
1.102347447e-23
1.070301454e-23
1.039234938e-23
1.009116017e-23
9.799141303e-24
9.515996732e-24
9.241441565e-24
8.975199198e-24
8.717004072e-24
8.466598146e-24
8.223732577e-24
7.988168561e-24
7.759673765e-24
7.538024066e-24
7.323002973e-24
7.114400888e-24
6.912016321e-24
6.715653593e-24
6.525123624e-24
6.340244351e-24
6.160839475e-24
5.986737308e-24
5.817773337e-24
5.653787753e-24
5.494626371e-24
5.340140334e-24
5.190185102e-24
5.044620886e-24
4.903312402e-24
4.766129119e-24
4.632944344e-24
4.503636162e-24
4.378085994e-24
4.256179374e-24
4.137805186e-24
4.02285646e-24
3.91122938e-24
3.802822967e-24
3.697540176e-24
3.595286146e-24
3.495970252e-24
3.399504256e-24
3.305802097e-24
3.214781521e-24
3.126362009e-24
3.040465494e-24
2.957017275e-24
2.875944604e-24
2.797176913e-24
2.720645115e-24
2.646283322e-24
2.574026951e-24
2.503814158e-24
2.435584424e-24
2.369279849e-24
2.304844046e-24
2.242221599e-24
2.181359381e-24
2.122205462e-24
2.064710455e-24
2.008825135e-24
1.954503522e-24
1.901700027e-24
1.850370199e-24
1.800471224e-24
1.751961902e-24
1.704802094e-24
1.658952455e-24
1.61437526e-24
1.571034028e-24
1.528892846e-24
1.487917446e-24
1.448074379e-24
1.409330976e-24
1.371655901e-24
1.335018692e-24
1.299389724e-24
1.264740048e-24
1.231041763e-24
1.198267579e-24
1.166391498e-24
1.135388113e-24
1.105232632e-24
1.075900996e-24
1.047370294e-24
1.019617323e-24
9.926202471e-25
9.663576033e-25
9.408093037e-25
9.159551565e-25
8.917757155e-25
8.6825159e-25
8.453645481e-25
8.230968166e-25
8.014314441e-25
7.803512176e-25
7.598400763e-25
7.398821512e-25
7.204617163e-25
7.01564192e-25
6.831748898e-25
6.652797923e-25
6.478650893e-25
6.30917628e-25
6.144244954e-25
5.983728827e-25
5.827510353e-25
5.675468324e-25
5.527487894e-25
5.383456381e-25
5.243268069e-25
5.1068178e-25
4.97400215e-25
4.844717852e-25
4.718872606e-25
4.596371648e-25
4.477122031e-25
4.361033568e-25
4.248023829e-25
4.138005989e-25
4.03090183e-25
3.926630476e-25
3.825113875e-25
3.726278837e-25
3.630052754e-25
3.536362509e-25
3.445141785e-25
3.356321593e-25
3.26983747e-25
3.185628283e-25
3.103632798e-25
3.023790283e-25
2.946042426e-25
2.870334872e-25
2.796612413e-25
2.724820145e-25
2.654906109e-25
2.586821884e-25
2.520515943e-25
2.45594138e-25
2.393056002e-25
2.33181045e-25
2.272161959e-25
2.214066721e-25
2.157481791e-25
2.102370049e-25
2.048691556e-25
1.996407451e-25
1.945482542e-25
1.895880296e-25
1.847565923e-25
1.800502465e-25
1.754658514e-25
1.710000698e-25
1.666498536e-25
1.624120618e-25
1.582838605e-25
1.542624156e-25
1.503447159e-25
1.465280262e-25
1.428095475e-25
1.391869892e-25
1.356577149e-25
1.322193948e-25
1.288694018e-25
1.256056283e-25
1.224256477e-25
1.193272766e-25
1.163082504e-25
1.133666218e-25
1.105001806e-25
1.077070578e-25
1.049854896e-25
1.023333439e-25
9.974874664e-26
9.723016356e-26
9.477562443e-26
9.238364271e-26
9.005254678e-26
8.778064897e-26
8.55662311e-26
8.34080104e-26
8.130439716e-26
7.925388767e-26
7.725504796e-26
7.530632999e-26
7.340649343e-26
7.155435783e-26
6.974856785e-26
6.798772215e-26
6.627073404e-26
6.459642462e-26
6.296338583e-26
6.137061754e-26
5.981678888e-26
5.830082549e-26
5.682184264e-26
5.537857265e-26
5.396992692e-26
5.2595045e-26
5.125277912e-26
4.994209321e-26
4.866195253e-26
4.741137033e-26
4.618956577e-26
4.499539341e-26
4.382803512e-26
4.268644942e-26
4.156980466e-26
4.047728741e-26
3.940794166e-26
3.836090621e-26
3.733534722e-26
3.633054205e-26
3.534571971e-26
2.748905803e-26
1.93445611e-26
1.363285827e-26
9.610679556e-27
6.773449418e-27
4.770063081e-27
3.357215303e-27
2.36193895e-27
1.661157091e-27
1.167099061e-27
8.214377468e-28
5.780759123e-28
4.074052838e-28
2.879896129e-28
2.050410857e-28
1.469082222e-28
1.062553361e-28
7.85576406e-29
5.90022783e-29
4.570073256e-29
3.65789412e-29
3.032322444e-29
2.600905967e-29
2.339355209e-29
2.165847615e-29
2.061476228e-29
2.007172496e-29
1.988540159e-29
1.99669716e-29
2.024552496e-29
2.066306324e-29
2.120142266e-29
2.184138489e-29
2.255977089e-29
2.336401093e-29
2.422297122e-29
2.515787017e-29
2.617107602e-29
2.725161244e-29
2.839269059e-29
2.961472086e-29
3.089933495e-29
3.225269841e-29
3.368838718e-29
3.520002349e-29
3.67847657e-29
3.840662267e-29
4.0156719e-29
4.190752022e-29
4.376028976e-29
4.570735688e-29
4.766414296e-29
4.968142301e-29
5.17531074e-29
5.384617674e-29
5.598433568e-29
5.813744723e-29
6.033387535e-29
6.250327554e-29
6.466162235e-29
6.681858359e-29
6.895231338e-29
7.104954112e-29
7.308515338e-29
7.508613449e-29
7.702151232e-29
7.889013236e-29
8.068181549e-29
8.239098756e-29
8.401402604e-29
8.554783047e-29
8.69882886e-29
8.833843399e-29
8.958894964e-29
9.074565925e-29
9.181192305e-29
9.279874568e-29
9.368554704e-29
9.448449716e-29
9.520469031e-29
9.585826872e-29
9.643285939e-29
9.694701404e-29
9.739887711e-29
9.77918243e-29
9.813673024e-29
9.843571158e-29
9.86908515e-29
9.891282192e-29
9.909876281e-29
9.925623371e-29
9.93894031e-29
9.949926786e-29
9.959037147e-29
9.966721853e-29
9.97284131e-29
9.977743717e-29
9.981625881e-29
9.984688325e-29
9.987033877e-29
9.988744947e-29
9.990052498e-29
9.990877805e-29
9.991402385e-29
9.991652091e-29
9.991657115e-29
9.991530893e-29
9.991276772e-29
9.990952972e-29
9.990516873e-29
9.990077798e-29
9.989603878e-29
9.989073005e-29
9.988587071e-29
9.988096497e-29
9.987617121e-29
9.987166979e-29
9.986740153e-29
9.986341843e-29
9.985980641e-29
9.985657881e-29
9.985360131e-29
9.985094703e-29
9.984855902e-29
9.984639608e-29
9.984449523e-29
9.984269686e-29
9.984117532e-29
9.98396925e-29
9.983827291e-29
9.983691716e-29
9.983552476e-29
9.983432223e-29
9.983291449e-29
9.983158322e-29
9.983014932e-29
9.982853997e-29
9.982721022e-29
9.982563816e-29
9.982412998e-29
9.982237564e-29
9.982082478e-29
9.981931878e-29
9.981770268e-29
9.981604623e-29
9.981441375e-29
9.981290186e-29
9.98117418e-29
9.981046132e-29
9.980911386e-29
9.98079607e-29
9.980672527e-29
9.980545523e-29
9.980411335e-29
9.980365293e-29
9.980249347e-29
9.980187879e-29
9.9801058e-29
9.98003248e-29
9.979984597e-29
9.979917935e-29
9.979881901e-29
9.979791229e-29
9.979740849e-29
9.979712532e-29
9.979599198e-29
9.979562814e-29
9.97951488e-29
9.979474277e-29
9.979390303e-29
9.979339868e-29
9.979310751e-29
9.979281443e-29
9.979265091e-29
9.979218223e-29
9.97916798e-29
9.979184375e-29
9.979111571e-29
9.979110229e-29
9.97908464e-29
9.979105207e-29
9.979076689e-29
9.979027922e-29
9.979026037e-29
9.979019443e-29
9.978989561e-29
9.978989912e-29
9.978998867e-29
9.978998499e-29
9.978988116e-29
9.979026893e-29
9.979019963e-29
9.979018726e-29
9.979065782e-29
9.97908942e-29
9.979091536e-29
9.97912907e-29
9.979150723e-29
9.97918042e-29
9.979156564e-29
9.979188906e-29
9.979199216e-29
9.979256541e-29
9.97927505e-29
9.97927655e-29
9.979317586e-29
9.979357342e-29
9.979361708e-29
9.979349479e-29
9.979395507e-29
9.979416186e-29
9.979419075e-29
9.979429487e-29
9.979438762e-29
9.979427358e-29
9.979431285e-29
9.979427085e-29
9.979424009e-29
9.979410061e-29
9.979401635e-29
9.979381409e-29
9.979366104e-29
9.979342306e-29
9.979328017e-29
9.979302643e-29
9.979283085e-29
9.979257216e-29
9.979232741e-29
9.979201085e-29
9.979179059e-29
9.979154294e-29
9.979123104e-29
9.979095968e-29
9.97906794e-29
9.979036789e-29
9.97901613e-29
9.978990593e-29
9.97896293e-29
9.978938481e-29
9.9788947e-29
9.978869657e-29
9.978845626e-29
9.978824543e-29
9.978818793e-29
9.978794805e-29
9.978781571e-29
9.978741387e-29
9.978738824e-29
9.978756713e-29
9.978737464e-29
)
;

boundaryField
{
    inlet
    {
        type            fixedValue;
        value           uniform 0;
    }
    outlet
    {
        type            zeroGradient;
    }
    wall
    {
        type            empty;
    }
}


// ************************************************************************* //
