/*--------------------------------*- C++ -*----------------------------------*\
  =========                 |
  \\      /  F ield         | OpenFOAM: The Open Source CFD Toolbox
   \\    /   O peration     | Website:  https://openfoam.org
    \\  /    A nd           | Version:  7
     \\/     M anipulation  |
\*---------------------------------------------------------------------------*/
FoamFile
{
    version     2.0;
    format      ascii;
    class       volScalarField;
    location    "0.000558243009";
    object      C2H5;
}
// * * * * * * * * * * * * * * * * * * * * * * * * * * * * * * * * * * * * * //

dimensions      [0 0 0 0 0 0 0];

internalField   nonuniform List<scalar> 
1500
(
1.662361558e-29
2.838969315e-29
3.105997013e-29
3.126877703e-29
3.113392532e-29
3.09959978e-29
3.090142052e-29
3.084698642e-29
3.081918157e-29
3.080556281e-29
3.079805956e-29
3.079258244e-29
3.078759588e-29
3.078281172e-29
3.077838775e-29
3.077452401e-29
3.0771319e-29
3.076875968e-29
3.076676373e-29
3.076522819e-29
3.076406307e-29
3.076320489e-29
3.076261449e-29
3.076226627e-29
3.076213631e-29
3.076219398e-29
3.0762399e-29
3.076270338e-29
3.076305632e-29
3.076340989e-29
3.076372375e-29
3.076396787e-29
3.076412328e-29
3.076418102e-29
3.076414025e-29
3.076400614e-29
3.076378791e-29
3.076349735e-29
3.076314773e-29
3.076275318e-29
3.076232814e-29
3.076188692e-29
3.076144312e-29
3.076100903e-29
3.076059499e-29
3.076020896e-29
3.075985623e-29
3.075953938e-29
3.075925857e-29
3.075901198e-29
3.075879638e-29
3.075860777e-29
3.075844196e-29
3.075829508e-29
3.075816396e-29
3.075804635e-29
3.075794102e-29
3.075784781e-29
3.075776746e-29
3.075770155e-29
3.075765226e-29
3.075762219e-29
3.075761419e-29
3.075763117e-29
3.075767587e-29
3.075775072e-29
3.075785763e-29
3.075799785e-29
3.075817182e-29
3.075837906e-29
3.075861809e-29
3.07588864e-29
3.075918046e-29
3.075949578e-29
3.075982701e-29
3.07601681e-29
3.076051244e-29
3.076085308e-29
3.076118296e-29
3.076149504e-29
3.076178261e-29
3.076203937e-29
3.076225968e-29
3.076243866e-29
3.076257233e-29
3.076265766e-29
3.076269266e-29
3.076267641e-29
3.076260901e-29
3.076249159e-29
3.07623263e-29
3.076211617e-29
3.076186513e-29
3.076157782e-29
3.076125954e-29
3.076091609e-29
3.076055364e-29
3.076017855e-29
3.075979721e-29
3.075941591e-29
3.075904062e-29
3.075867685e-29
3.075832951e-29
3.075800274e-29
3.075769986e-29
3.075742327e-29
3.075717442e-29
3.07569538e-29
3.075676101e-29
3.075659485e-29
3.07564534e-29
3.075633422e-29
3.075623449e-29
3.075615118e-29
3.075608124e-29
3.075602175e-29
3.075597007e-29
3.075592395e-29
3.075588162e-29
3.07558418e-29
3.075580374e-29
3.075576719e-29
3.075573231e-29
3.075569963e-29
3.075566993e-29
3.075564414e-29
3.075562329e-29
3.075560834e-29
3.075560022e-29
3.075559969e-29
3.075560736e-29
3.075562369e-29
3.075564899e-29
3.075568346e-29
3.075572725e-29
3.075578048e-29
3.075584331e-29
3.075591597e-29
3.075599881e-29
3.075609228e-29
3.075619694e-29
3.075631348e-29
3.075644262e-29
3.075658511e-29
3.075674164e-29
3.075691281e-29
3.0757099e-29
3.075730041e-29
3.075751689e-29
3.0757748e-29
3.075799292e-29
3.075825049e-29
3.075851916e-29
3.075879709e-29
3.075908213e-29
3.07593719e-29
3.075966387e-29
3.075995538e-29
3.076024373e-29
3.076052626e-29
3.076080035e-29
3.076106353e-29
3.076131345e-29
3.076154792e-29
3.076176492e-29
3.076196259e-29
3.076213921e-29
3.076229319e-29
3.076242305e-29
3.076252741e-29
3.0762605e-29
3.076265464e-29
3.076267526e-29
3.076266596e-29
3.076262602e-29
3.076255495e-29
3.076245259e-29
3.076231911e-29
3.076215513e-29
3.076196177e-29
3.076174074e-29
3.076149436e-29
3.076122565e-29
3.07609384e-29
3.076063712e-29
3.07603271e-29
3.076001432e-29
3.075970537e-29
3.075940726e-29
3.075912728e-29
3.075887264e-29
3.075865026e-29
3.075846637e-29
3.075832625e-29
3.075823398e-29
3.075819222e-29
3.075820218e-29
3.075826367e-29
3.075837529e-29
3.075853477e-29
3.07587393e-29
3.075898595e-29
3.075927201e-29
3.075959513e-29
3.075995334e-29
3.076034475e-29
3.076076701e-29
3.076121662e-29
3.076168801e-29
3.076217277e-29
3.076265899e-29
3.076313114e-29
3.076357042e-29
3.076395593e-29
3.076426665e-29
3.076448414e-29
3.07645958e-29
3.076459843e-29
3.076450154e-29
3.076432994e-29
3.076412513e-29
3.076394475e-29
3.076385996e-29
3.076395028e-29
3.076429619e-29
3.076496973e-29
3.076602386e-29
3.076748173e-29
3.076932699e-29
3.077149684e-29
3.077387897e-29
3.077631401e-29
3.077860416e-29
3.078052846e-29
3.078186439e-29
3.078241468e-29
3.078203732e-29
3.078067618e-29
3.077838913e-29
3.077537039e-29
3.077196486e-29
3.076867347e-29
3.076615209e-29
3.076521009e-29
3.076681772e-29
3.077212503e-29
3.078246341e-29
3.079919251e-29
3.082298511e-29
3.085136094e-29
3.086139127e-29
3.086424547e-29
3.086716834e-29
3.087016434e-29
3.087323623e-29
3.08763865e-29
3.087961788e-29
3.088293343e-29
3.088633646e-29
3.088983052e-29
3.089341932e-29
3.089710672e-29
3.090089674e-29
3.090479357e-29
3.090880157e-29
3.091292531e-29
3.091716957e-29
3.092153935e-29
3.092603991e-29
3.093067677e-29
3.093545569e-29
3.094038277e-29
3.094546438e-29
3.095070722e-29
3.095611833e-29
3.096170512e-29
3.096747537e-29
3.097343724e-29
3.097959934e-29
3.098597069e-29
3.099256079e-29
3.099937963e-29
3.100643768e-29
3.101374598e-29
3.102131612e-29
3.102916028e-29
3.103729126e-29
3.104572251e-29
3.105446817e-29
3.106354308e-29
3.107296286e-29
3.108274388e-29
3.109290336e-29
3.110345938e-29
3.111443093e-29
3.112583792e-29
3.11377013e-29
3.115004302e-29
3.116288614e-29
3.117625486e-29
3.119017457e-29
3.120467191e-29
3.121977483e-29
3.123551265e-29
3.125191611e-29
3.126901746e-29
3.128685051e-29
3.130545073e-29
3.132485527e-29
3.134510309e-29
3.136623503e-29
3.138829388e-29
3.141132449e-29
3.143537383e-29
3.146049114e-29
3.148672799e-29
3.151413837e-29
3.154277887e-29
3.157270874e-29
3.160399e-29
3.163668763e-29
3.167086964e-29
3.170660723e-29
3.174397493e-29
3.178305079e-29
3.182391645e-29
3.186665739e-29
3.191136306e-29
3.195812706e-29
3.200704734e-29
3.205822637e-29
3.211177139e-29
3.216779457e-29
3.222641328e-29
3.228775027e-29
3.235193397e-29
3.241909871e-29
3.248938497e-29
3.256293969e-29
3.263991656e-29
3.272047628e-29
3.280478692e-29
3.289302419e-29
3.298537186e-29
3.308202206e-29
3.318317564e-29
3.328904262e-29
3.339984251e-29
3.351580482e-29
3.363716941e-29
3.376418701e-29
3.389711964e-29
3.403624117e-29
3.418183776e-29
3.433420843e-29
3.44936656e-29
3.466053568e-29
3.483515965e-29
3.501789367e-29
3.520910975e-29
3.540919638e-29
3.561855924e-29
3.58376219e-29
3.606682657e-29
3.630663483e-29
3.655752847e-29
3.682001025e-29
3.709460477e-29
3.738185934e-29
3.768234484e-29
3.799665668e-29
3.832541573e-29
3.86692693e-29
3.902889212e-29
3.940498742e-29
3.979828795e-29
4.020955709e-29
4.063958994e-29
4.108921448e-29
4.155929277e-29
4.205072208e-29
4.256443619e-29
4.310140661e-29
4.366264384e-29
4.424919871e-29
4.486216373e-29
4.550267439e-29
4.61719106e-29
4.687109807e-29
4.760150975e-29
4.836446732e-29
4.916134262e-29
4.999355917e-29
5.086259374e-29
5.176997783e-29
5.271729929e-29
5.370620388e-29
5.473839692e-29
5.581564485e-29
5.693977697e-29
5.811268701e-29
5.933633488e-29
6.061274838e-29
6.194402487e-29
6.333233305e-29
6.47799147e-29
6.628908648e-29
6.786224169e-29
6.950185215e-29
7.121046994e-29
7.299072935e-29
7.484534873e-29
7.677713237e-29
7.878897249e-29
8.088385114e-29
8.306484225e-29
8.533511364e-29
8.769792907e-29
9.01566504e-29
9.27147397e-29
9.537576149e-29
9.814338498e-29
1.010213864e-28
1.040136516e-28
1.07124178e-28
1.103570779e-28
1.137165804e-28
1.172070347e-28
1.208329127e-28
1.245988122e-28
1.285094598e-28
1.325697143e-28
1.367845701e-28
1.41159161e-28
1.456987639e-28
1.504088029e-28
1.552948532e-28
1.603626462e-28
1.656180741e-28
1.710671946e-28
1.767162369e-28
1.825716068e-28
1.886398934e-28
1.949278754e-28
2.014425277e-28
2.081910294e-28
2.151807712e-28
2.22419364e-28
2.29914648e-28
2.37674702e-28
2.457078539e-28
2.540226917e-28
2.626280748e-28
2.715331468e-28
2.807473487e-28
2.902804333e-28
3.001424799e-28
3.10343911e-28
3.208955095e-28
3.318084367e-28
3.430942524e-28
3.54764936e-28
3.668329081e-28
3.793110552e-28
3.922127546e-28
4.055519015e-28
4.193429378e-28
4.336008829e-28
4.483413663e-28
4.63580662e-28
4.793357262e-28
4.956242359e-28
5.124646312e-28
5.298761595e-28
5.47878923e-28
5.664939291e-28
5.857431434e-28
6.05649547e-28
6.262371965e-28
6.475312887e-28
6.695582281e-28
6.923456998e-28
7.159227462e-28
7.40319849e-28
7.655690159e-28
7.917038729e-28
8.187597623e-28
8.467738472e-28
8.757852218e-28
9.058350293e-28
9.36966587e-28
9.692255192e-28
1.002659898e-27
1.037320396e-27
1.073260442e-27
1.110536396e-27
1.149207725e-27
1.189337202e-27
1.230991106e-27
1.274239443e-27
1.31915618e-27
1.365819492e-27
1.414312027e-27
1.464721193e-27
1.517139455e-27
1.571664665e-27
1.628400397e-27
1.687456324e-27
1.7489486e-27
1.813000279e-27
1.879741756e-27
1.949311247e-27
2.021855291e-27
2.097529187e-27
2.176497296e-27
2.258933912e-27
2.345023956e-27
2.434963572e-27
2.528961184e-27
2.627238345e-27
2.730030634e-27
2.837588669e-27
2.950179237e-27
3.068086508e-27
3.191613341e-27
3.321082675e-27
3.456839044e-27
3.59925032e-27
3.748709515e-27
3.90563621e-27
4.070479183e-27
4.2437188e-27
4.425869396e-27
4.617481586e-27
4.819145434e-27
5.031494329e-27
5.255209081e-27
5.491022393e-27
5.739723879e-27
6.002165745e-27
6.279269241e-27
6.572032018e-27
6.88153657e-27
7.208959971e-27
7.555585171e-27
7.922814169e-27
8.312183507e-27
8.725382573e-27
9.164275402e-27
9.630926799e-27
1.012763387e-26
1.065696435e-26
1.122180349e-26
1.182541184e-26
1.247149686e-26
1.316430235e-26
1.39087206e-26
1.471043411e-26
1.557609535e-26
1.651355601e-26
1.753216085e-26
1.864312563e-26
1.986002523e-26
2.119942629e-26
2.268170953e-26
2.433214182e-26
2.618227719e-26
2.827179197e-26
3.065089313e-26
3.338348476e-26
3.655133757e-26
4.025958696e-26
4.464399175e-26
4.988052784e-26
5.619807997e-26
6.389524617e-26
7.336260423e-26
8.511223474e-26
9.981688841e-26
1.183619747e-25
1.419145998e-25
1.720152829e-25
2.106998416e-25
2.606614253e-25
3.254659774e-25
4.09838822e-25
5.200459355e-25
6.64401296e-25
8.539421256e-25
1.103327743e-24
1.432036268e-24
1.86595811e-24
2.439518104e-24
3.198502037e-24
4.203821852e-24
5.536531856e-24
7.304512349e-24
9.651375948e-24
1.276833708e-23
1.691003215e-23
2.241560768e-23
2.97368334e-23
3.947558438e-23
5.243381994e-23
6.968023248e-23
9.263913569e-23
1.232090257e-22
1.639207379e-22
2.181484454e-22
2.903911885e-22
3.866485541e-22
5.149220547e-22
6.858843541e-22
9.137726536e-22
1.217581505e-21
1.622655663e-21
2.16281752e-21
2.88320909e-21
3.84408935e-21
5.125909285e-21
6.836096347e-21
9.118126737e-21
1.216366096e-20
1.622878291e-20
2.165573883e-20
2.890205234e-20
3.857953803e-20
5.150660916e-20
6.877845491e-20
9.186125982e-20
1.227188055e-19
1.63982739e-19
2.191818041e-19
2.930508083e-19
3.919475949e-19
5.24416586e-19
7.019516409e-19
9.400305739e-19
1.259520875e-18
1.688594068e-18
2.265339183e-18
3.041340377e-18
4.086589197e-18
5.496251703e-18
7.400024818e-18
9.975123944e-18
1.346438913e-17
1.820164505e-17
2.464740034e-17
3.343937637e-17
4.5464449e-17
6.196172941e-17
8.467126421e-17
1.160500799e-16
1.595884113e-16
2.202761093e-16
3.052958742e-16
4.250616743e-16
5.947866528e-16
8.368704131e-16
1.18456731e-15
1.687681305e-15
2.421509295e-15
3.501062208e-15
5.103966296e-15
7.507777854e-15
1.11513702e-14
1.67366073e-14
2.539737241e-14
3.898091736e-14
6.051604291e-14
9.499171141e-14
1.50652094e-13
2.411538439e-13
3.891705032e-13
6.324400999e-13
1.033960646e-12
1.699261267e-12
2.805791792e-12
4.653146871e-12
7.749264466e-12
1.29590814e-11
2.176239837e-11
3.670441977e-11
6.218986781e-11
1.058971057e-10
1.813250929e-10
3.124348136e-10
5.422025631e-10
9.485337955e-10
1.674080669e-09
2.982320968e-09
5.363025194e-09
9.729817083e-09
1.778722898e-08
3.270482387e-08
6.03364251e-08
1.113720082e-07
2.051589493e-07
3.757958791e-07
6.838134436e-07
1.232017775e-06
2.192890431e-06
3.820154498e-06
6.54589831e-06
1.095595069e-05
1.776994023e-05
2.760581792e-05
4.048040985e-05
5.53568113e-05
7.069152141e-05
8.525867696e-05
9.814913111e-05
0.0001084798815
0.0001155420767
0.0001185372347
0.0001173744235
0.000112291577
0.0001038788424
9.33699721e-05
8.182945936e-05
7.032227453e-05
5.964712258e-05
5.023308358e-05
4.205957349e-05
3.505445022e-05
2.908363935e-05
2.400548454e-05
1.968937665e-05
1.600971933e-05
1.292724867e-05
1.03380866e-05
8.20807858e-06
6.468546052e-06
5.06435123e-06
3.94342548e-06
3.057744021e-06
2.356549329e-06
1.806728579e-06
1.38158873e-06
1.054456661e-06
8.03783735e-07
6.122383463e-07
4.660844741e-07
3.546844931e-07
2.698095926e-07
2.052974131e-07
1.571664299e-07
1.20519212e-07
9.22532432e-08
7.076443063e-08
5.440208326e-08
4.191816834e-08
3.237292847e-08
2.505885179e-08
1.944879512e-08
1.512771357e-08
1.179617129e-08
9.222146519e-09
7.229089323e-09
5.682419e-09
4.479374869e-09
3.541364301e-09
2.808179895e-09
2.233621102e-09
1.782174046e-09
1.42649035e-09
1.145470139e-09
9.228025842e-10
7.458533159e-10
6.04815125e-10
4.9205868e-10
4.016355033e-10
3.288968386e-10
2.702009416e-10
2.226879044e-10
1.841061222e-10
1.526783169e-10
1.269979046e-10
1.059486781e-10
8.864243324e-11
7.437043039e-11
6.256554062e-11
5.27726606e-11
4.46255376e-11
3.782857397e-11
3.214250768e-11
2.737311611e-11
2.336228301e-11
1.998091672e-11
1.712332182e-11
1.470271442e-11
1.264763953e-11
1.089910156e-11
9.408259936e-12
8.134573632e-12
7.044303211e-12
6.10929826e-12
5.306013228e-12
4.614706527e-12
4.018787034e-12
3.504279485e-12
3.059385973e-12
2.674125351e-12
2.340035956e-12
2.049929899e-12
1.797689502e-12
1.57809822e-12
1.386699887e-12
1.219681268e-12
1.073773832e-12
9.461714204e-13
8.34461096e-13
7.365649285e-13
6.506909009e-13
5.752914171e-13
5.090281707e-13
4.507423437e-13
3.994292806e-13
3.542169297e-13
3.143474593e-13
2.791615563e-13
2.480849948e-13
2.206171288e-13
1.963210193e-13
1.748149512e-13
1.557651348e-13
1.388794179e-13
1.239018613e-13
1.106080545e-13
9.880106416e-14
8.830792715e-14
7.897661059e-14
7.06733745e-14
6.32804809e-14
5.669420202e-14
5.082308678e-14
4.558645056e-14
4.091305834e-14
3.673997537e-14
3.301156313e-14
2.967860154e-14
2.669752085e-14
2.402972892e-14
2.164102167e-14
1.950106599e-14
1.758294572e-14
1.586276299e-14
1.431928765e-14
1.293364889e-14
1.168906385e-14
1.057059847e-14
9.564956723e-15
8.660294734e-15
7.846056681e-15
7.112829904e-15
6.452216852e-15
5.85672187e-15
5.31965103e-15
4.835023466e-15
4.397492838e-15
4.00227773e-15
3.645099941e-15
3.322129736e-15
3.029937244e-15
2.765449303e-15
2.525911108e-15
2.30885212e-15
2.112055739e-15
1.933532323e-15
1.771495163e-15
1.624339079e-15
1.490621357e-15
1.369044739e-15
1.258442258e-15
1.157763709e-15
1.066063557e-15
9.82490149e-16
9.062760701e-16
8.367295176e-16
7.732265924e-16
7.15204398e-16
6.621548644e-16
6.136192173e-16
5.691830227e-16
5.28471746e-16
4.9114677e-16
4.56901823e-16
4.25459774e-16
3.96569755e-16
3.700045774e-16
3.455584102e-16
3.23044694e-16
3.022942647e-16
2.831536661e-16
2.65483632e-16
2.491577194e-16
2.340610777e-16
2.200893404e-16
2.071476262e-16
1.951496381e-16
1.840168517e-16
1.736777823e-16
1.640673241e-16
1.551261528e-16
1.468001871e-16
1.390401014e-16
1.318008861e-16
1.250414493e-16
1.18724257e-16
1.128150083e-16
1.072823397e-16
1.020975595e-16
9.723440554e-17
9.266882672e-17
8.837878469e-17
8.434407403e-17
8.054615929e-17
7.696802709e-17
7.359405192e-17
7.040987434e-17
6.740229028e-17
6.455915059e-17
6.186926972e-17
5.932234264e-17
5.690886935e-17
5.462008622e-17
5.244790346e-17
5.03848482e-17
4.842401269e-17
4.655900705e-17
4.478391629e-17
4.309326104e-17
4.148196179e-17
3.99453062e-17
3.847891937e-17
3.707873657e-17
3.574097841e-17
3.446212813e-17
3.32389108e-17
3.206827437e-17
3.094737225e-17
2.987354743e-17
2.884431791e-17
2.785736332e-17
2.691051271e-17
2.600173334e-17
2.512912035e-17
2.429088735e-17
2.34853577e-17
2.271095659e-17
2.196620365e-17
2.124970628e-17
2.056015337e-17
1.989630964e-17
1.925701038e-17
1.864115658e-17
1.804771046e-17
1.747569136e-17
1.692417192e-17
1.639227456e-17
1.587916824e-17
1.538406545e-17
1.490621941e-17
1.44449215e-17
1.399949891e-17
1.356931234e-17
1.315375404e-17
1.275224585e-17
1.236423744e-17
1.198920466e-17
1.162664804e-17
1.127609129e-17
1.093708008e-17
1.06091807e-17
1.029197896e-17
9.985079122e-18
9.688102859e-18
9.400688341e-18
9.122489344e-18
8.853174435e-18
8.592426194e-18
8.339940503e-18
8.095425857e-18
7.85860274e-18
7.62920302e-18
7.406969391e-18
7.191654851e-18
6.983022198e-18
6.780843569e-18
6.584899998e-18
6.394981001e-18
6.210884184e-18
6.032414877e-18
5.85938578e-18
5.691616636e-18
5.528933918e-18
5.371170536e-18
5.218165552e-18
5.069763922e-18
4.925816238e-18
4.786178491e-18
4.650711849e-18
4.519282437e-18
4.391761135e-18
4.268023384e-18
4.147949002e-18
4.031422004e-18
3.918330438e-18
3.808566225e-18
3.702025005e-18
3.598605996e-18
3.498211849e-18
3.400748524e-18
3.306125156e-18
3.214253939e-18
3.125050011e-18
3.03843134e-18
2.954318622e-18
2.87263518e-18
2.793306865e-18
2.716261966e-18
2.641431119e-18
2.568747224e-18
2.498145365e-18
2.429562727e-18
2.362938527e-18
2.298213935e-18
2.235332014e-18
2.174237645e-18
2.11487747e-18
2.057199826e-18
2.001154691e-18
1.946693621e-18
1.893769704e-18
1.842337502e-18
1.792353002e-18
1.743773567e-18
1.696557891e-18
1.650665955e-18
1.606058982e-18
1.562699394e-18
1.520550777e-18
1.479577838e-18
1.439746369e-18
1.401023213e-18
1.363376227e-18
1.326774252e-18
1.291187075e-18
1.256585406e-18
1.222940842e-18
1.190225842e-18
1.158413695e-18
1.127478499e-18
1.097395129e-18
1.068139218e-18
1.039687129e-18
1.01201593e-18
9.851033784e-19
9.589278922e-19
9.334685335e-19
9.087049865e-19
8.84617538e-19
8.611870584e-19
8.38394984e-19
8.162232988e-19
7.946545179e-19
7.736716707e-19
7.53258285e-19
7.333983718e-19
7.140764103e-19
6.952773332e-19
6.769865127e-19
6.591897475e-19
6.41873249e-19
6.250236303e-19
6.086278917e-19
5.926734106e-19
5.771479292e-19
5.620395438e-19
5.473366937e-19
5.330281517e-19
5.191030131e-19
5.055506866e-19
4.923608838e-19
4.795236119e-19
4.670291631e-19
4.548681077e-19
4.430312844e-19
4.315097931e-19
4.202949868e-19
4.09378464e-19
3.987520619e-19
3.884078485e-19
3.783381172e-19
3.685353782e-19
3.589923538e-19
3.497019719e-19
3.406573585e-19
3.318518339e-19
3.232789055e-19
3.149322632e-19
3.068057736e-19
2.988934753e-19
2.911895735e-19
2.83688435e-19
2.76384584e-19
2.692726974e-19
2.623476e-19
2.556042608e-19
2.490377886e-19
2.426434278e-19
2.364165544e-19
2.303526727e-19
2.244474111e-19
2.186965193e-19
2.130958639e-19
2.076414257e-19
2.023292958e-19
1.971556733e-19
1.921168615e-19
1.872092654e-19
1.824293883e-19
1.777738301e-19
1.732392831e-19
1.688225301e-19
1.645204421e-19
1.603299754e-19
1.562481693e-19
1.522721439e-19
1.483990973e-19
1.446263044e-19
1.409511139e-19
1.373709465e-19
1.338832925e-19
1.304857106e-19
1.271758257e-19
1.239513266e-19
1.20809965e-19
1.177495528e-19
1.147679614e-19
1.118631192e-19
1.090330107e-19
1.062756744e-19
1.035892016e-19
1.009717352e-19
9.842146772e-20
9.593664017e-20
9.351554042e-20
9.115650268e-20
8.885790546e-20
8.661817058e-20
8.443576203e-20
8.230918518e-20
8.023698476e-20
7.821774458e-20
7.625008609e-20
7.433266744e-20
7.246418242e-20
7.064335961e-20
6.88689613e-20
6.713978264e-20
6.545465068e-20
6.381242344e-20
6.221198948e-20
6.065226662e-20
5.913220128e-20
5.765076752e-20
5.620696678e-20
5.479982667e-20
5.342840046e-20
5.209176628e-20
5.07890267e-20
4.951930769e-20
4.828175825e-20
4.707555005e-20
4.589987601e-20
4.47539504e-20
4.363700811e-20
4.254830392e-20
4.148711227e-20
4.045272652e-20
3.94444585e-20
3.846163809e-20
3.750361257e-20
3.656974603e-20
3.565941921e-20
3.477202908e-20
3.390698814e-20
3.306372425e-20
3.224168001e-20
3.144031249e-20
3.065909285e-20
2.989750579e-20
2.915504936e-20
2.843123445e-20
2.772558472e-20
2.703763594e-20
2.63669359e-20
2.571304376e-20
2.507553005e-20
2.445397617e-20
2.384797423e-20
2.325712655e-20
2.26810457e-20
2.211935372e-20
2.157168238e-20
2.103767261e-20
2.051697415e-20
2.000924547e-20
1.951415356e-20
1.903137346e-20
1.856058817e-20
1.81014884e-20
1.76537721e-20
1.721714441e-20
1.679131761e-20
1.637601055e-20
1.597094844e-20
1.557586285e-20
1.519049135e-20
1.481457728e-20
1.444786949e-20
1.409012222e-20
1.37410947e-20
1.340055123e-20
1.306826068e-20
1.274399621e-20
1.242753543e-20
1.211865982e-20
1.181715474e-20
1.152280924e-20
1.123541561e-20
1.095476951e-20
1.068066974e-20
1.041291786e-20
1.015131836e-20
9.895678351e-21
9.645807605e-21
9.401518548e-21
9.162625921e-21
8.928947141e-21
8.700302013e-21
8.476513002e-21
8.257405145e-21
8.042806064e-21
7.832546226e-21
7.626459425e-21
7.424383506e-21
7.226162727e-21
5.6431469e-21
3.99195705e-21
2.828114908e-21
2.003440957e-21
1.418182431e-21
1.002870143e-21
7.083613578e-22
4.997185625e-22
3.520713904e-22
2.477145136e-22
1.74049367e-22
1.221179009e-22
8.555792405e-23
5.985560104e-23
4.181290843e-23
2.916521742e-23
2.031237329e-23
1.412553725e-23
9.808188133e-24
6.800207233e-24
4.707738753e-24
3.254150015e-24
2.246016436e-24
1.548160406e-24
1.065545099e-24
7.324137642e-25
5.027594891e-25
3.446963833e-25
2.360566302e-25
1.614909691e-25
1.10372556e-25
7.541251455e-26
5.149989021e-26
3.516700749e-26
2.406354461e-26
1.649227216e-26
1.133615597e-26
7.841818947e-27
5.474120645e-27
3.862620722e-27
2.804094195e-27
2.077129477e-27
1.618441909e-27
1.327964875e-27
1.130229767e-27
9.784676441e-28
8.677910826e-28
8.941538836e-28
8.145723366e-28
8.38899724e-28
8.792182011e-28
9.204506289e-28
9.007364328e-28
9.396828451e-28
9.908457412e-28
1.112203061e-27
1.16128843e-27
1.185238893e-27
1.235865267e-27
1.240050614e-27
1.317263247e-27
1.335132601e-27
1.404748509e-27
1.445915063e-27
1.496307167e-27
1.538721498e-27
1.591159828e-27
1.636821194e-27
1.676844913e-27
1.71871053e-27
1.745316418e-27
1.791192441e-27
1.832371476e-27
1.861632044e-27
1.910385298e-27
1.92188249e-27
1.943418433e-27
1.974215805e-27
1.982323494e-27
1.99724112e-27
2.003057538e-27
2.015134991e-27
2.038062634e-27
2.068480557e-27
2.067441398e-27
2.068097197e-27
2.075608064e-27
2.082949781e-27
2.089761121e-27
2.096509583e-27
2.101965563e-27
2.102296903e-27
2.104944358e-27
2.105342705e-27
2.109380904e-27
2.110232734e-27
2.111358537e-27
2.113149496e-27
2.113842449e-27
2.114539379e-27
2.114665737e-27
2.115473189e-27
2.115689547e-27
2.115673893e-27
2.115644071e-27
2.115397127e-27
2.115521955e-27
2.115652421e-27
2.115485266e-27
2.11496294e-27
2.115338828e-27
2.11511197e-27
2.114915869e-27
2.114904293e-27
2.114843474e-27
2.114800822e-27
2.114846316e-27
2.114643761e-27
2.114734782e-27
2.11465959e-27
2.114355994e-27
2.114370125e-27
2.11454963e-27
2.114058686e-27
2.114176798e-27
2.113886034e-27
2.114147806e-27
2.113871467e-27
2.114133794e-27
2.114001543e-27
2.113815325e-27
2.113928899e-27
2.11354894e-27
2.113667769e-27
2.114443217e-27
2.114178702e-27
2.114012741e-27
2.114219441e-27
2.114565605e-27
2.113517794e-27
2.113548291e-27
2.113283323e-27
2.114200284e-27
2.113210273e-27
2.113621358e-27
2.113835401e-27
2.113384265e-27
2.113627605e-27
2.113529058e-27
2.113357025e-27
2.113677468e-27
2.113392563e-27
2.113783622e-27
2.113449892e-27
2.113473635e-27
2.113879427e-27
2.113097531e-27
2.114174236e-27
2.113436928e-27
2.113801345e-27
2.114121542e-27
2.113357026e-27
2.113002005e-27
2.113481548e-27
2.113968823e-27
2.113276444e-27
2.112974762e-27
2.112751975e-27
2.113086812e-27
2.11302189e-27
2.113046488e-27
2.112978514e-27
2.112542578e-27
2.112987422e-27
2.113148547e-27
2.113346411e-27
2.113733967e-27
2.113481262e-27
2.113229778e-27
2.113560767e-27
2.113698799e-27
2.113861545e-27
2.113437986e-27
2.113503661e-27
2.113175612e-27
2.113141656e-27
2.112949673e-27
2.113213323e-27
2.113436791e-27
2.112917085e-27
2.113096948e-27
2.113362209e-27
2.112934071e-27
2.113514121e-27
2.113536723e-27
2.112983849e-27
2.11389758e-27
2.113345163e-27
2.1135587e-27
2.112840882e-27
2.112646868e-27
2.112802195e-27
2.11322159e-27
2.112964536e-27
2.112981748e-27
2.113211229e-27
2.113355642e-27
2.113058114e-27
2.112640084e-27
2.113326048e-27
2.112896843e-27
2.113108379e-27
2.112925213e-27
2.112900894e-27
2.112990912e-27
2.11303071e-27
2.11301403e-27
2.113369115e-27
2.11294626e-27
2.112994683e-27
2.112966875e-27
2.113257067e-27
2.112996941e-27
2.113131491e-27
2.11314329e-27
2.112935241e-27
2.112715396e-27
2.113133098e-27
2.113057299e-27
2.112987347e-27
2.113167361e-27
2.113175886e-27
2.112509552e-27
2.112811251e-27
2.112691103e-27
2.113178831e-27
2.113275323e-27
2.11302831e-27
2.112929877e-27
2.112467656e-27
2.112846694e-27
2.11239664e-27
2.11232126e-27
2.112767552e-27
2.112478927e-27
2.112304942e-27
2.112477208e-27
2.113299855e-27
2.112930759e-27
2.112314765e-27
)
;

boundaryField
{
    inlet
    {
        type            fixedValue;
        value           uniform 0;
    }
    outlet
    {
        type            zeroGradient;
    }
    wall
    {
        type            empty;
    }
}


// ************************************************************************* //
