/*--------------------------------*- C++ -*----------------------------------*\
  =========                 |
  \\      /  F ield         | OpenFOAM: The Open Source CFD Toolbox
   \\    /   O peration     | Website:  https://openfoam.org
    \\  /    A nd           | Version:  7
     \\/     M anipulation  |
\*---------------------------------------------------------------------------*/
FoamFile
{
    version     2.0;
    format      ascii;
    class       volScalarField;
    location    "0.000558243009";
    object      C2H5O_0;
}
// * * * * * * * * * * * * * * * * * * * * * * * * * * * * * * * * * * * * * //

dimensions      [0 0 0 0 0 0 0];

internalField   nonuniform List<scalar> 
1500
(
7.240256194e-21
2.82863185e-20
5.832147658e-20
8.738330236e-20
1.088992274e-19
1.219275488e-19
1.286339866e-19
1.31640264e-19
1.328338802e-19
1.332592834e-19
1.333969131e-19
1.33437737e-19
1.334489521e-19
1.33451849e-19
1.334525785e-19
1.334527767e-19
1.334528476e-19
1.334528851e-19
1.334529107e-19
1.334529297e-19
1.334529441e-19
1.334529548e-19
1.334529623e-19
1.334529669e-19
1.334529689e-19
1.334529686e-19
1.334529666e-19
1.334529634e-19
1.334529596e-19
1.334529558e-19
1.334529525e-19
1.3345295e-19
1.334529486e-19
1.334529483e-19
1.334529493e-19
1.334529513e-19
1.334529543e-19
1.334529582e-19
1.334529628e-19
1.334529678e-19
1.334529733e-19
1.334529789e-19
1.334529845e-19
1.3345299e-19
1.334529953e-19
1.334530002e-19
1.334530047e-19
1.334530088e-19
1.334530125e-19
1.334530158e-19
1.334530187e-19
1.334530213e-19
1.334530237e-19
1.334530258e-19
1.334530278e-19
1.334530296e-19
1.334530312e-19
1.334530328e-19
1.334530342e-19
1.334530354e-19
1.334530364e-19
1.334530372e-19
1.334530377e-19
1.334530379e-19
1.334530377e-19
1.334530372e-19
1.334530363e-19
1.334530349e-19
1.334530332e-19
1.334530311e-19
1.334530285e-19
1.334530256e-19
1.334530224e-19
1.33453019e-19
1.334530153e-19
1.334530116e-19
1.334530078e-19
1.334530041e-19
1.334530005e-19
1.334529971e-19
1.33452994e-19
1.334529913e-19
1.33452989e-19
1.334529872e-19
1.334529859e-19
1.334529853e-19
1.334529852e-19
1.334529857e-19
1.334529869e-19
1.334529886e-19
1.334529909e-19
1.334529937e-19
1.33452997e-19
1.334530007e-19
1.334530048e-19
1.334530092e-19
1.334530138e-19
1.334530186e-19
1.334530235e-19
1.334530283e-19
1.334530331e-19
1.334530378e-19
1.334530423e-19
1.334530465e-19
1.334530504e-19
1.33453054e-19
1.334530573e-19
1.334530602e-19
1.334530628e-19
1.33453065e-19
1.33453067e-19
1.334530686e-19
1.3345307e-19
1.334530712e-19
1.334530722e-19
1.33453073e-19
1.334530737e-19
1.334530743e-19
1.334530749e-19
1.334530754e-19
1.334530759e-19
1.334530763e-19
1.334530767e-19
1.334530771e-19
1.334530775e-19
1.334530778e-19
1.334530781e-19
1.334530783e-19
1.334530784e-19
1.334530785e-19
1.334530785e-19
1.334530785e-19
1.334530784e-19
1.334530782e-19
1.334530779e-19
1.334530775e-19
1.334530771e-19
1.334530766e-19
1.33453076e-19
1.334530753e-19
1.334530745e-19
1.334530735e-19
1.334530725e-19
1.334530713e-19
1.334530699e-19
1.334530684e-19
1.334530667e-19
1.334530648e-19
1.334530628e-19
1.334530606e-19
1.334530582e-19
1.334530556e-19
1.334530529e-19
1.334530501e-19
1.334530471e-19
1.334530441e-19
1.334530411e-19
1.33453038e-19
1.334530349e-19
1.334530319e-19
1.334530289e-19
1.33453026e-19
1.334530233e-19
1.334530207e-19
1.334530183e-19
1.334530161e-19
1.334530142e-19
1.334530125e-19
1.33453011e-19
1.334530099e-19
1.33453009e-19
1.334530085e-19
1.334530083e-19
1.334530085e-19
1.334530091e-19
1.3345301e-19
1.334530113e-19
1.334530131e-19
1.334530151e-19
1.334530176e-19
1.334530204e-19
1.334530235e-19
1.334530269e-19
1.334530306e-19
1.334530344e-19
1.334530384e-19
1.334530425e-19
1.334530465e-19
1.334530504e-19
1.334530541e-19
1.334530576e-19
1.334530607e-19
1.334530633e-19
1.334530655e-19
1.334530671e-19
1.33453068e-19
1.334530684e-19
1.33453068e-19
1.33453067e-19
1.334530654e-19
1.334530632e-19
1.334530604e-19
1.334530571e-19
1.334530534e-19
1.334530492e-19
1.334530447e-19
1.334530399e-19
1.334530348e-19
1.334530296e-19
1.334530242e-19
1.334530188e-19
1.334530134e-19
1.334530081e-19
1.334530032e-19
1.334529986e-19
1.334529946e-19
1.334529912e-19
1.334529885e-19
1.334529865e-19
1.334529851e-19
1.334529842e-19
1.334529834e-19
1.334529823e-19
1.334529804e-19
1.334529772e-19
1.334529721e-19
1.334529646e-19
1.334529541e-19
1.334529405e-19
1.334529236e-19
1.334529036e-19
1.334528812e-19
1.334528572e-19
1.334528326e-19
1.334528089e-19
1.334527875e-19
1.334527697e-19
1.334527567e-19
1.334527496e-19
1.334527493e-19
1.334527585e-19
1.334527867e-19
1.334528665e-19
1.334530954e-19
1.334537366e-19
1.334554205e-19
1.334594619e-19
1.33468116e-19
1.334839945e-19
1.335064237e-19
1.335135696e-19
1.335158132e-19
1.335181454e-19
1.335205704e-19
1.335230912e-19
1.335257112e-19
1.335284343e-19
1.335312646e-19
1.335342069e-19
1.335372658e-19
1.335404465e-19
1.335437544e-19
1.335471949e-19
1.335507739e-19
1.335544974e-19
1.335583719e-19
1.335624041e-19
1.335666011e-19
1.335709703e-19
1.335755194e-19
1.335802568e-19
1.33585191e-19
1.335903311e-19
1.335956867e-19
1.336012679e-19
1.336070853e-19
1.3361315e-19
1.336194739e-19
1.336260694e-19
1.336329497e-19
1.336401285e-19
1.336476205e-19
1.336554411e-19
1.336636066e-19
1.336721343e-19
1.336810422e-19
1.336903497e-19
1.337000771e-19
1.337102458e-19
1.337208787e-19
1.337319998e-19
1.337436346e-19
1.3375581e-19
1.337685547e-19
1.337818988e-19
1.337958745e-19
1.338105155e-19
1.33825858e-19
1.338419399e-19
1.338588016e-19
1.33876486e-19
1.338950384e-19
1.339145068e-19
1.339349423e-19
1.339563987e-19
1.339789335e-19
1.340026074e-19
1.340274846e-19
1.340536334e-19
1.340811261e-19
1.341100395e-19
1.341404548e-19
1.341724581e-19
1.342061407e-19
1.342415994e-19
1.342789365e-19
1.343182606e-19
1.343596868e-19
1.344033369e-19
1.344493396e-19
1.344978316e-19
1.345489573e-19
1.346028696e-19
1.346597302e-19
1.347197102e-19
1.347829904e-19
1.348497622e-19
1.349202275e-19
1.349946e-19
1.350731051e-19
1.351559811e-19
1.352434793e-19
1.35335865e-19
1.354334181e-19
1.355364337e-19
1.356452228e-19
1.357601134e-19
1.358814507e-19
1.360095983e-19
1.36144939e-19
1.362878755e-19
1.364388314e-19
1.365982519e-19
1.367666049e-19
1.36944382e-19
1.371320992e-19
1.373302981e-19
1.37539547e-19
1.377604415e-19
1.37993606e-19
1.382396947e-19
1.384993925e-19
1.387734161e-19
1.390625154e-19
1.393674744e-19
1.396891123e-19
1.400282851e-19
1.40385886e-19
1.407628475e-19
1.411601416e-19
1.41578782e-19
1.420198243e-19
1.42484368e-19
1.429735572e-19
1.434885819e-19
1.440306793e-19
1.446011346e-19
1.452012826e-19
1.458325085e-19
1.464962488e-19
1.471939931e-19
1.479272842e-19
1.486977198e-19
1.495069532e-19
1.503566941e-19
1.512487099e-19
1.521848259e-19
1.531669267e-19
1.541969564e-19
1.552769197e-19
1.564088821e-19
1.575949706e-19
1.588373743e-19
1.601383443e-19
1.615001946e-19
1.629253018e-19
1.644161055e-19
1.65975108e-19
1.676048745e-19
1.69308033e-19
1.710872737e-19
1.729453485e-19
1.748850711e-19
1.769093158e-19
1.79021017e-19
1.812231682e-19
1.835188212e-19
1.859110848e-19
1.884031237e-19
1.909981572e-19
1.936994575e-19
1.96510348e-19
1.994342021e-19
2.024744407e-19
2.056345305e-19
2.08917982e-19
2.12328347e-19
2.158692161e-19
2.195442166e-19
2.233570096e-19
2.273112875e-19
2.314107708e-19
2.356592055e-19
2.400603598e-19
2.446180211e-19
2.493359928e-19
2.542180907e-19
2.5926814e-19
2.644899714e-19
2.698874182e-19
2.754643119e-19
2.812244793e-19
2.871717384e-19
2.933098949e-19
2.996427387e-19
3.061740397e-19
3.129075447e-19
3.198469734e-19
3.26996015e-19
3.343583245e-19
3.419375191e-19
3.497371753e-19
3.577608251e-19
3.660119529e-19
3.744939925e-19
3.832103245e-19
3.921642728e-19
4.013591027e-19
4.107980181e-19
4.204841598e-19
4.30420603e-19
4.406103558e-19
4.51056358e-19
4.617614798e-19
4.72728521e-19
4.839602103e-19
4.954592056e-19
5.072280937e-19
5.192693913e-19
5.315855457e-19
5.441789365e-19
5.570518771e-19
5.702066175e-19
5.836453467e-19
5.973701962e-19
6.113832438e-19
6.25686518e-19
6.40282003e-19
6.551716443e-19
6.703573543e-19
6.858410199e-19
7.016245094e-19
7.177096804e-19
7.340983889e-19
7.507924987e-19
7.677938915e-19
7.851044774e-19
8.027262074e-19
8.206610851e-19
8.389111802e-19
8.574786424e-19
8.763657166e-19
8.955747581e-19
9.151082496e-19
9.349688184e-19
9.551592549e-19
9.756825316e-19
9.965418237e-19
1.01774053e-18
1.039282295e-18
1.061171032e-18
1.083410946e-18
1.106006564e-18
1.128962752e-18
1.15228475e-18
1.175978197e-18
1.200049163e-18
1.224504173e-18
1.249350247e-18
1.274594925e-18
1.300246308e-18
1.326313085e-18
1.352804577e-18
1.379730769e-18
1.407102349e-18
1.434930753e-18
1.463228198e-18
1.49200773e-18
1.521283267e-18
1.551069642e-18
1.581382651e-18
1.612239098e-18
1.64365685e-18
1.675654882e-18
1.708253328e-18
1.741473543e-18
1.775338149e-18
1.809871096e-18
1.845097719e-18
1.881044803e-18
1.917740636e-18
1.955215085e-18
1.993499658e-18
2.032627559e-18
2.072633792e-18
2.113555209e-18
2.155430575e-18
2.198300663e-18
2.24220833e-18
2.287198601e-18
2.333318759e-18
2.380618431e-18
2.429149682e-18
2.478967109e-18
2.530127941e-18
2.582692139e-18
2.636722503e-18
2.692284794e-18
2.749447828e-18
2.808283632e-18
2.868867568e-18
2.931278487e-18
2.995598867e-18
3.061915007e-18
3.130317203e-18
3.200899926e-18
3.273762033e-18
3.349007017e-18
3.426743266e-18
3.507084359e-18
3.590149391e-18
3.676063347e-18
3.764957525e-18
3.856970016e-18
3.952246264e-18
4.050939708e-18
4.153212532e-18
4.259236544e-18
4.369194202e-18
4.483279832e-18
4.601701061e-18
4.724680528e-18
4.852457916e-18
4.98529238e-18
5.123465455e-18
5.267284546e-18
5.417087117e-18
5.573245738e-18
5.73617417e-18
5.906334697e-18
6.084247001e-18
6.270498877e-18
6.465759203e-18
6.670793653e-18
6.886483717e-18
7.113849769e-18
7.354079029e-18
7.608559489e-18
7.878921069e-18
8.167085575e-18
8.475327333e-18
8.80634682e-18
9.163360065e-18
9.550207225e-18
9.971484467e-18
1.043270415e-17
1.094048945e-17
1.15028107e-17
1.212927265e-17
1.283146339e-17
1.362337827e-17
1.452193497e-17
1.554759935e-17
1.67251458e-17
1.808458108e-17
1.966226684e-17
2.150228336e-17
2.365808664e-17
2.619452152e-17
2.919026769e-17
3.274081135e-17
3.696205556e-17
4.19947064e-17
4.800960169e-17
5.521418444e-17
6.386036712e-17
7.425408504e-17
8.676690168e-17
1.018501061e-16
1.200518375e-16
1.420378861e-16
1.686169595e-16
2.007713716e-16
2.396943179e-16
2.868351489e-16
3.439543558e-16
4.131903518e-16
4.971405748e-16
5.989599816e-16
7.224806579e-16
8.723570662e-16
1.05424242e-15
1.275002849e-15
1.542977433e-15
1.868293927e-15
2.263252073e-15
2.742788948e-15
3.325043874e-15
4.032044138e-15
4.890537314e-15
5.933001439e-15
7.198870959e-15
8.736024386e-15
1.060258937e-14
1.286913265e-14
1.562131668e-14
1.89631219e-14
2.302075458e-14
2.794738532e-14
3.392889383e-14
4.119083225e-14
5.00068639e-14
6.070898742e-14
7.369992117e-14
8.946809975e-14
1.08605828e-13
1.318312492e-13
1.600149191e-13
1.942119359e-13
2.357007701e-13
2.860301644e-13
3.470757457e-13
4.211083147e-13
5.108761544e-13
6.197041532e-13
7.516130569e-13
9.114627818e-13
1.10512443e-12
1.339686469e-12
1.623701482e-12
1.967480948e-12
2.383446716e-12
2.886549169e-12
3.494763486e-12
4.229676988e-12
5.117182119e-12
6.188291255e-12
7.480091041e-12
9.036855317e-12
1.091133671e-11
1.316625748e-11
1.587601996e-11
1.912865587e-11
2.302803105e-11
2.769631853e-11
3.327674632e-11
3.99366168e-11
4.787057978e-11
5.73041171e-11
6.849715935e-11
8.174770121e-11
9.739521788e-11
1.158236333e-10
1.374636025e-10
1.627940122e-10
1.923429065e-10
2.266884192e-10
2.664603628e-10
3.123422125e-10
3.650705302e-10
4.254242194e-10
4.94191084e-10
5.720990123e-10
6.597124503e-10
7.573312323e-10
8.649900996e-10
9.827232307e-10
1.111276904e-09
1.253359634e-09
1.415297526e-09
1.608702041e-09
1.851597486e-09
2.168583993e-09
2.5905825e-09
3.156762754e-09
3.922357248e-09
4.973572034e-09
6.447033212e-09
8.557450835e-09
1.161982601e-08
1.613454825e-08
2.28199573e-08
3.274567118e-08
4.709853172e-08
6.819474801e-08
9.827616955e-08
1.39072553e-07
1.897720836e-07
2.444637288e-07
2.925616626e-07
3.254384897e-07
3.417145379e-07
3.449071359e-07
3.391812091e-07
3.274329482e-07
3.118577489e-07
2.930732023e-07
2.712976627e-07
2.465251637e-07
2.200317614e-07
1.926594151e-07
1.65818455e-07
1.410462204e-07
1.18837295e-07
9.924445149e-08
8.211833948e-08
6.722780579e-08
5.437141452e-08
4.335798337e-08
3.402529276e-08
2.630854676e-08
2.001754753e-08
1.504754188e-08
1.118475e-08
8.237991881e-09
6.025422587e-09
4.385676211e-09
3.176085577e-09
2.28748445e-09
1.644279097e-09
1.180873803e-09
8.478620757e-10
6.088516213e-10
4.375069507e-10
3.146062802e-10
2.263531378e-10
1.6307657e-10
1.181793705e-10
8.58148518e-11
6.228251921e-11
4.530963468e-11
3.303627704e-11
2.413870603e-11
1.767309459e-11
1.29644074e-11
9.529609996e-12
7.017363543e-12
5.177224804e-12
3.826924792e-12
2.834278798e-12
2.10323815e-12
1.563883928e-12
1.16522868e-12
8.700263078e-13
6.510223672e-13
4.882400194e-13
3.670121168e-13
2.765519001e-13
2.089131274e-13
1.582322807e-13
1.201754285e-13
9.153381748e-14
6.99277251e-14
5.358924372e-14
4.120270599e-14
3.17872705e-14
2.461039331e-14
1.912396147e-14
1.491708003e-14
1.168111605e-14
9.183777318e-15
7.249860697e-15
5.746931605e-15
4.574654604e-15
3.656831435e-15
2.935449702e-15
2.366226968e-15
1.915268758e-15
1.556557537e-15
1.270062564e-15
1.040314398e-15
8.553276661e-16
7.057853453e-16
5.844197092e-16
4.855414706e-16
4.046807866e-16
3.383128717e-16
2.836477322e-16
2.384685992e-16
2.010074298e-16
1.698486882e-16
1.438547554e-16
1.22107923e-16
1.038651347e-16
8.852255759e-17
7.558775083e-17
6.465772744e-17
5.540159928e-17
4.754679857e-17
4.086809956e-17
3.517883967e-17
3.032387436e-17
2.617390315e-17
2.262088394e-17
1.957431413e-17
1.695820463e-17
1.470860943e-17
1.277160242e-17
1.110161542e-17
9.660068822e-18
8.414240089e-18
7.336326327e-18
6.402665535e-18
5.593088081e-18
4.890375345e-18
4.279806777e-18
3.748780119e-18
3.286492305e-18
2.883670836e-18
2.532347192e-18
2.225665399e-18
1.957719982e-18
1.72341861e-18
1.51836545e-18
1.338761999e-18
1.181322623e-18
1.043202546e-18
9.219363606e-19
8.153854673e-19
7.216930778e-19
6.392456629e-19
5.666398759e-19
5.026541452e-19
4.462242522e-19
3.964223118e-19
3.524386656e-19
3.135662671e-19
2.791872045e-19
2.48761057e-19
2.218148271e-19
1.979342266e-19
1.76756129e-19
1.57962026e-19
1.412723504e-19
1.264415458e-19
1.132537828e-19
1.015192329e-19
9.107082544e-20
8.176142309e-20
7.346135963e-20
6.605629232e-20
5.944532713e-20
5.353938121e-20
4.82597513e-20
4.353686164e-20
3.930916803e-20
3.552219778e-20
3.212770832e-20
2.908294935e-20
2.635001518e-20
2.389527615e-20
2.168887892e-20
1.970430712e-20
1.791799486e-20
1.630898654e-20
1.485863714e-20
1.355034807e-20
1.236933431e-20
1.130241891e-20
1.033785152e-20
9.465148161e-21
8.674949523e-21
7.958895779e-21
7.30951565e-21
6.720128317e-21
6.184756577e-21
5.698049699e-21
5.255215158e-21
4.851958069e-21
4.484427364e-21
4.149168038e-21
3.843078678e-21
3.563373758e-21
3.307550045e-21
3.073356714e-21
2.858768808e-21
2.661963499e-21
2.481299002e-21
2.315295711e-21
2.162619455e-21
2.022066475e-21
1.892550029e-21
1.773088459e-21
1.662794482e-21
1.560865638e-21
1.466575748e-21
1.379267236e-21
1.298344315e-21
1.223266797e-21
1.15354461e-21
1.088732877e-21
1.028427464e-21
9.722610186e-22
9.198993969e-22
8.710384455e-22
8.254011259e-22
7.827349253e-22
7.42809532e-22
7.054147217e-22
6.70358475e-22
6.374652615e-22
6.065745199e-22
5.775392646e-22
5.502248349e-22
5.245077805e-22
5.002748298e-22
4.774219685e-22
4.558536177e-22
4.354818696e-22
4.162258223e-22
3.980109455e-22
3.807685371e-22
3.644352067e-22
3.489524282e-22
3.34266113e-22
3.203262227e-22
3.070864482e-22
2.945038882e-22
2.825387663e-22
2.711541719e-22
2.603158284e-22
2.499918705e-22
2.401526584e-22
2.307705977e-22
2.218199735e-22
2.132768089e-22
2.051187269e-22
1.973248274e-22
1.898755687e-22
1.82752677e-22
1.759390409e-22
1.69418624e-22
1.631763933e-22
1.571982398e-22
1.514709128e-22
1.459819629e-22
1.407196823e-22
1.356730463e-22
1.308316781e-22
1.261857932e-22
1.217261715e-22
1.174441028e-22
1.13331367e-22
1.09380197e-22
1.055832451e-22
1.01933563e-22
9.842457302e-23
9.505004167e-23
9.180406259e-23
8.868103251e-23
8.567563916e-23
8.278283745e-23
7.99978353e-23
7.731607858e-23
7.473323662e-23
7.224518921e-23
6.98480167e-23
6.753798682e-23
6.531154377e-23
6.316529795e-23
6.109602031e-23
5.910063064e-23
5.717618799e-23
5.53198882e-23
5.352905148e-23
5.180111606e-23
5.013363594e-23
4.852427462e-23
4.697079745e-23
4.547106489e-23
4.402303065e-23
4.262473537e-23
4.127430576e-23
3.996994532e-23
3.870993097e-23
3.749261338e-23
3.631641548e-23
3.517982022e-23
3.408137567e-23
3.301968771e-23
3.199342027e-23
3.10012884e-23
3.004205956e-23
2.911455088e-23
2.821762666e-23
2.735019472e-23
2.651120679e-23
2.569965519e-23
2.491457198e-23
2.4155027e-23
2.342012283e-23
2.270900015e-23
2.202083079e-23
2.13548178e-23
2.07101954e-23
2.008622432e-23
1.948219549e-23
1.889742629e-23
1.833125908e-23
1.778305941e-23
1.725221765e-23
1.673814554e-23
1.624027684e-23
1.575806654e-23
1.529098825e-23
1.483853538e-23
1.440021863e-23
1.397556805e-23
1.35641292e-23
1.316546473e-23
1.277915306e-23
1.240478671e-23
1.204197149e-23
1.169032996e-23
1.134949643e-23
1.101911833e-23
1.069885549e-23
1.038837902e-23
1.008737148e-23
9.79552675e-24
9.512549674e-24
9.238155677e-24
8.972067673e-24
8.714020519e-24
8.463756361e-24
8.221026953e-24
7.985593251e-24
7.757223389e-24
7.535694371e-24
7.320788695e-24
7.1122976e-24
6.910018607e-24
6.713756712e-24
6.523324122e-24
6.338538538e-24
6.159222557e-24
5.985206208e-24
5.81632388e-24
5.652416922e-24
5.493331283e-24
5.338916899e-24
5.189030048e-24
5.043531636e-24
4.90228612e-24
4.7651628e-24
4.632035501e-24
4.50278137e-24
4.377283013e-24
4.255425865e-24
4.137099361e-24
4.022196184e-24
3.91061269e-24
3.802247397e-24
3.697003605e-24
3.59478701e-24
3.495506951e-24
3.399075017e-24
3.305405847e-24
3.214416479e-24
3.126026799e-24
3.04015904e-24
2.956738238e-24
2.875691115e-24
2.796946747e-24
2.720437514e-24
2.646096835e-24
2.573861378e-24
2.503668853e-24
2.435458572e-24
2.369171877e-24
2.304752503e-24
2.242145362e-24
2.181297321e-24
2.122156946e-24
2.064674755e-24
2.008801932e-24
1.954492208e-24
1.901699518e-24
1.850380764e-24
1.80049197e-24
1.751991805e-24
1.704840191e-24
1.658998189e-24
1.614428181e-24
1.571093338e-24
1.5289586e-24
1.487988975e-24
1.44815113e-24
1.409413027e-24
1.371742323e-24
1.335109284e-24
1.29948427e-24
1.264837803e-24
1.231142722e-24
1.198371407e-24
1.166497868e-24
1.135496671e-24
1.105343156e-24
1.076013345e-24
1.047483744e-24
1.019732116e-24
9.927361716e-25
9.664746784e-25
9.409274998e-25
9.16074154e-25
8.91894869e-25
8.683710906e-25
8.454842046e-25
8.232168056e-25
8.015511264e-25
7.804706173e-25
7.599591958e-25
7.400008456e-25
7.205798387e-25
7.016814952e-25
6.832909528e-25
6.653948262e-25
6.479790124e-25
6.310306117e-25
6.145362379e-25
5.984836932e-25
5.82860963e-25
5.67655569e-25
5.528561803e-25
5.384515476e-25
5.244311232e-25
5.107844929e-25
4.975013039e-25
4.845713021e-25
4.719848822e-25
4.597329643e-25
4.478061483e-25
4.361959267e-25
4.248934051e-25
4.138902501e-25
4.031780716e-25
3.927490304e-25
3.825955854e-25
3.727104677e-25
3.630862063e-25
3.53715565e-25
3.445916946e-25
3.357080923e-25
3.270583869e-25
3.186361152e-25
3.104351497e-25
3.024493261e-25
2.946727425e-25
2.871001523e-25
2.797261082e-25
2.725453051e-25
2.655525698e-25
2.587425975e-25
2.521105246e-25
2.456516127e-25
2.393615842e-25
2.332355831e-25
2.272693959e-25
2.214583688e-25
2.157986062e-25
2.102861172e-25
2.049169194e-25
1.996871659e-25
1.945932898e-25
1.896316557e-25
1.84798712e-25
1.800911378e-25
1.755055395e-25
1.71038699e-25
1.666874744e-25
1.624486443e-25
1.583193386e-25
1.542968307e-25
1.503780449e-25
1.465603269e-25
1.428410138e-25
1.392174031e-25
1.356871909e-25
1.322476911e-25
1.288965918e-25
1.256316869e-25
1.224506691e-25
1.193512032e-25
1.163311635e-25
1.133886589e-25
1.105215994e-25
1.077276727e-25
1.050052839e-25
1.023524637e-25
9.976718984e-26
9.724774105e-26
9.479245201e-26
9.23997818e-26
9.006782944e-26
8.779517069e-26
8.558027541e-26
8.342157264e-26
8.131731551e-26
7.926623467e-26
7.726682868e-26
7.531758548e-26
7.341719541e-26
7.156442702e-26
6.975810387e-26
6.799663664e-26
6.627909469e-26
6.460400823e-26
6.297033979e-26
6.13769436e-26
5.982257099e-26
5.830607577e-26
5.682644094e-26
5.538278902e-26
5.397387704e-26
5.25984836e-26
5.125563235e-26
4.994442233e-26
4.866385753e-26
4.741294159e-26
4.619061313e-26
4.499580589e-26
4.382789821e-26
4.268585993e-26
4.156881723e-26
4.04760008e-26
3.940649891e-26
3.835927448e-26
3.733400165e-26
3.632975563e-26
3.534598352e-26
2.74997187e-26
1.933507775e-26
1.362177275e-26
9.599785308e-27
6.763544709e-27
4.762207575e-27
3.351919491e-27
2.357644865e-27
1.657271961e-27
1.164771417e-27
8.194865249e-28
5.765536046e-28
4.063707548e-28
2.876156044e-28
2.046344053e-28
1.465682409e-28
1.061303599e-28
7.823968082e-29
5.893684288e-29
4.565486489e-29
3.645270566e-29
3.026259423e-29
2.594893296e-29
2.336644975e-29
2.158910348e-29
2.059276461e-29
2.006969735e-29
1.989222383e-29
1.997420244e-29
2.025274761e-29
2.066412902e-29
2.121471203e-29
2.184669863e-29
2.25730997e-29
2.338786423e-29
2.424660515e-29
2.517164894e-29
2.619278824e-29
2.727323654e-29
2.841816777e-29
2.964332873e-29
3.093462923e-29
3.22915148e-29
3.372520766e-29
3.523972774e-29
3.680639458e-29
3.846388188e-29
4.019542957e-29
4.195676804e-29
4.384217823e-29
4.572249481e-29
4.771053244e-29
4.971315781e-29
5.179951325e-29
5.390759028e-29
5.603753969e-29
5.819155596e-29
6.039933915e-29
6.256493682e-29
6.470965759e-29
6.686688613e-29
6.898134846e-29
7.10919042e-29
7.313257238e-29
7.51320584e-29
7.70575508e-29
7.892762529e-29
8.071517986e-29
8.242282906e-29
8.404196197e-29
8.557316371e-29
8.701262031e-29
8.836376479e-29
8.961089201e-29
9.077044227e-29
9.182971283e-29
9.281132425e-29
9.369941581e-29
9.450242252e-29
9.521707846e-29
9.586929417e-29
9.643802201e-29
9.695252122e-29
9.741217503e-29
9.780486065e-29
9.81419219e-29
9.843929504e-29
9.869308313e-29
9.891471945e-29
9.910180492e-29
9.926138282e-29
9.939220002e-29
9.950361423e-29
9.959431586e-29
9.966975162e-29
9.973018702e-29
9.977880884e-29
9.981771098e-29
9.984779315e-29
9.9871278e-29
9.988820235e-29
9.990051058e-29
9.990892854e-29
9.991380186e-29
9.991621448e-29
9.991639791e-29
9.991530262e-29
9.991259963e-29
9.990950817e-29
9.990488314e-29
9.990052851e-29
9.989569896e-29
9.989044239e-29
9.988570278e-29
9.988046688e-29
9.987587157e-29
9.987146362e-29
9.986725564e-29
9.986335958e-29
9.985970719e-29
9.98564578e-29
9.985347209e-29
9.985085749e-29
9.984850234e-29
9.984622289e-29
9.984446794e-29
9.984267878e-29
9.984117889e-29
9.983959707e-29
9.98382185e-29
9.98368697e-29
9.983553528e-29
9.983424465e-29
9.983296532e-29
9.983165204e-29
9.983019278e-29
9.982860791e-29
9.982724361e-29
9.982586183e-29
9.982401409e-29
9.982243067e-29
9.982083587e-29
9.981924323e-29
9.981755467e-29
9.981611999e-29
9.981442644e-29
9.981282284e-29
9.981200589e-29
9.981026333e-29
9.98090053e-29
9.980777274e-29
9.980658612e-29
9.980517158e-29
9.980430045e-29
9.980345739e-29
9.980273129e-29
9.980187323e-29
9.980128253e-29
9.980042446e-29
9.979988484e-29
9.979918e-29
9.979854197e-29
9.979804431e-29
9.979763229e-29
9.979667832e-29
9.979621685e-29
9.979555014e-29
9.979504477e-29
9.979439015e-29
9.979457468e-29
9.97936366e-29
9.979352747e-29
9.979294314e-29
9.979265215e-29
9.979231797e-29
9.979178968e-29
9.97916472e-29
9.979139875e-29
9.979118047e-29
9.979091908e-29
9.979092412e-29
9.979057697e-29
9.979029845e-29
9.979012027e-29
9.979041298e-29
9.978983137e-29
9.978996051e-29
9.978987257e-29
9.978997615e-29
9.978982528e-29
9.979025761e-29
9.979054793e-29
9.979026409e-29
9.979073625e-29
9.979100056e-29
9.979099955e-29
9.979124345e-29
9.979156672e-29
9.979177656e-29
9.979191464e-29
9.979204964e-29
9.979252186e-29
9.979288172e-29
9.979300219e-29
9.979305869e-29
9.979331375e-29
9.979354099e-29
9.979398551e-29
9.979397869e-29
9.979402683e-29
9.979420669e-29
9.979445161e-29
9.979418375e-29
9.979431307e-29
9.979441985e-29
9.979456347e-29
9.979430342e-29
9.979426418e-29
9.979404313e-29
9.979399454e-29
9.979385827e-29
9.979368183e-29
9.979347502e-29
9.979329062e-29
9.97930662e-29
9.979279674e-29
9.979258304e-29
9.979231295e-29
9.979199549e-29
9.979177497e-29
9.979143217e-29
9.979115357e-29
9.979085988e-29
9.9790661e-29
9.979029219e-29
9.979013882e-29
9.978994734e-29
9.978946219e-29
9.978920113e-29
9.978898653e-29
9.978853022e-29
9.978849648e-29
9.978815438e-29
9.978813327e-29
9.978786936e-29
9.978752687e-29
9.978731392e-29
9.978752075e-29
9.978763155e-29
9.978708098e-29
)
;

boundaryField
{
    inlet
    {
        type            fixedValue;
        value           uniform 0;
    }
    outlet
    {
        type            zeroGradient;
    }
    wall
    {
        type            empty;
    }
}


// ************************************************************************* //
