/*--------------------------------*- C++ -*----------------------------------*\
  =========                 |
  \\      /  F ield         | OpenFOAM: The Open Source CFD Toolbox
   \\    /   O peration     | Website:  https://openfoam.org
    \\  /    A nd           | Version:  7
     \\/     M anipulation  |
\*---------------------------------------------------------------------------*/
FoamFile
{
    version     2.0;
    format      ascii;
    class       volScalarField;
    location    "0.000558243009";
    object      C2H5CHO_0;
}
// * * * * * * * * * * * * * * * * * * * * * * * * * * * * * * * * * * * * * //

dimensions      [0 0 0 0 0 0 0];

internalField   nonuniform List<scalar> 
1500
(
5.235742203e-16
2.039890279e-15
4.197724284e-15
6.274513278e-15
7.802543046e-15
8.721804729e-15
9.191881966e-15
9.40119094e-15
9.483728709e-15
9.512940082e-15
9.52232237e-15
9.525083022e-15
9.525833154e-15
9.526022674e-15
9.526067456e-15
9.526077403e-15
9.526079489e-15
9.526079904e-15
9.526079983e-15
9.526079997e-15
9.526079999e-15
9.52608e-15
9.52608e-15
9.52608e-15
9.52608e-15
9.52608e-15
9.52608e-15
9.52608e-15
9.52608e-15
9.52608e-15
9.52608e-15
9.52608e-15
9.52608e-15
9.52608e-15
9.52608e-15
9.52608e-15
9.52608e-15
9.52608e-15
9.52608e-15
9.52608e-15
9.52608e-15
9.52608e-15
9.52608e-15
9.52608e-15
9.52608e-15
9.52608e-15
9.52608e-15
9.52608e-15
9.52608e-15
9.52608e-15
9.52608e-15
9.52608e-15
9.52608e-15
9.52608e-15
9.52608e-15
9.52608e-15
9.52608e-15
9.52608e-15
9.52608e-15
9.52608e-15
9.52608e-15
9.52608e-15
9.52608e-15
9.52608e-15
9.52608e-15
9.52608e-15
9.52608e-15
9.52608e-15
9.52608e-15
9.52608e-15
9.52608e-15
9.52608e-15
9.52608e-15
9.52608e-15
9.52608e-15
9.52608e-15
9.52608e-15
9.52608e-15
9.52608e-15
9.52608e-15
9.52608e-15
9.52608e-15
9.52608e-15
9.52608e-15
9.52608e-15
9.52608e-15
9.52608e-15
9.52608e-15
9.52608e-15
9.52608e-15
9.52608e-15
9.52608e-15
9.52608e-15
9.52608e-15
9.52608e-15
9.52608e-15
9.52608e-15
9.52608e-15
9.52608e-15
9.52608e-15
9.52608e-15
9.52608e-15
9.52608e-15
9.52608e-15
9.52608e-15
9.52608e-15
9.52608e-15
9.52608e-15
9.52608e-15
9.52608e-15
9.52608e-15
9.52608e-15
9.52608e-15
9.52608e-15
9.52608e-15
9.52608e-15
9.52608e-15
9.52608e-15
9.52608e-15
9.52608e-15
9.52608e-15
9.52608e-15
9.52608e-15
9.52608e-15
9.52608e-15
9.52608e-15
9.52608e-15
9.52608e-15
9.52608e-15
9.52608e-15
9.52608e-15
9.52608e-15
9.52608e-15
9.52608e-15
9.52608e-15
9.52608e-15
9.52608e-15
9.52608e-15
9.52608e-15
9.52608e-15
9.52608e-15
9.52608e-15
9.52608e-15
9.52608e-15
9.52608e-15
9.52608e-15
9.52608e-15
9.52608e-15
9.52608e-15
9.52608e-15
9.52608e-15
9.52608e-15
9.52608e-15
9.52608e-15
9.52608e-15
9.52608e-15
9.52608e-15
9.52608e-15
9.52608e-15
9.52608e-15
9.52608e-15
9.52608e-15
9.52608e-15
9.52608e-15
9.52608e-15
9.52608e-15
9.52608e-15
9.52608e-15
9.52608e-15
9.52608e-15
9.52608e-15
9.52608e-15
9.52608e-15
9.52608e-15
9.52608e-15
9.52608e-15
9.52608e-15
9.52608e-15
9.52608e-15
9.52608e-15
9.52608e-15
9.52608e-15
9.52608e-15
9.52608e-15
9.52608e-15
9.52608e-15
9.52608e-15
9.52608e-15
9.52608e-15
9.52608e-15
9.52608e-15
9.52608e-15
9.52608e-15
9.52608e-15
9.52608e-15
9.52608e-15
9.52608e-15
9.52608e-15
9.52608e-15
9.52608e-15
9.52608e-15
9.52608e-15
9.52608e-15
9.52608e-15
9.52608e-15
9.52608e-15
9.52608e-15
9.52608e-15
9.52608e-15
9.52608e-15
9.52608e-15
9.52608e-15
9.52608e-15
9.52608e-15
9.52608e-15
9.52608e-15
9.52608e-15
9.52608e-15
9.52608e-15
9.52608e-15
9.52608e-15
9.52608e-15
9.52608e-15
9.52608e-15
9.52608e-15
9.52608e-15
9.52608e-15
9.52608e-15
9.52608e-15
9.52608e-15
9.52608e-15
9.52608e-15
9.52608e-15
9.52608e-15
9.52608e-15
9.52608e-15
9.526080001e-15
9.526080004e-15
9.526080013e-15
9.526080052e-15
9.526080211e-15
9.526080839e-15
9.526083147e-15
9.526091031e-15
9.526115843e-15
9.526187211e-15
9.526372635e-15
9.52679911e-15
9.52763208e-15
9.528862127e-15
9.529214525e-15
9.529333905e-15
9.529458106e-15
9.529587335e-15
9.529721754e-15
9.529861545e-15
9.530006917e-15
9.5301581e-15
9.530315344e-15
9.530478906e-15
9.530649061e-15
9.530826089e-15
9.531010288e-15
9.531201965e-15
9.531401445e-15
9.531609065e-15
9.531825182e-15
9.532050167e-15
9.532284409e-15
9.53252832e-15
9.532782326e-15
9.53304688e-15
9.533322454e-15
9.533609545e-15
9.533908673e-15
9.534220387e-15
9.534545263e-15
9.534883906e-15
9.535236954e-15
9.535605076e-15
9.535988979e-15
9.536389404e-15
9.536807134e-15
9.537242993e-15
9.537697852e-15
9.538172626e-15
9.538668282e-15
9.53918584e-15
9.539726378e-15
9.540291034e-15
9.540881009e-15
9.541497574e-15
9.542142071e-15
9.542815922e-15
9.543520628e-15
9.544257782e-15
9.545029066e-15
9.545836265e-15
9.546681268e-15
9.547566076e-15
9.548492814e-15
9.549463731e-15
9.550481215e-15
9.551547797e-15
9.552666167e-15
9.553839175e-15
9.555069851e-15
9.55636141e-15
9.557717268e-15
9.559141052e-15
9.560636616e-15
9.562208055e-15
9.563859723e-15
9.565596242e-15
9.56742253e-15
9.569343812e-15
9.571365642e-15
9.573493925e-15
9.575734938e-15
9.578095352e-15
9.580582262e-15
9.583203207e-15
9.5859662e-15
9.588879761e-15
9.59195294e-15
9.595195357e-15
9.598617231e-15
9.60222942e-15
9.606043457e-15
9.610071587e-15
9.614326814e-15
9.618822943e-15
9.623574624e-15
9.628597402e-15
9.633907768e-15
9.639523209e-15
9.645462268e-15
9.651744597e-15
9.658391019e-15
9.66542359e-15
9.672865665e-15
9.680741968e-15
9.689078656e-15
9.697903399e-15
9.707245453e-15
9.717135737e-15
9.727606921e-15
9.738693499e-15
9.750431889e-15
9.762860513e-15
9.776019892e-15
9.789952743e-15
9.804704077e-15
9.820321296e-15
9.836854299e-15
9.854355584e-15
9.872880362e-15
9.89248666e-15
9.913235435e-15
9.935190692e-15
9.958419596e-15
9.982992589e-15
1.000898351e-14
1.003646973e-14
1.006553223e-14
1.009625579e-14
1.012872904e-14
1.016304465e-14
1.01992994e-14
1.023759433e-14
1.027803487e-14
1.032073094e-14
1.036579707e-14
1.041335256e-14
1.046352153e-14
1.05164331e-14
1.057222145e-14
1.063102597e-14
1.069299135e-14
1.075826764e-14
1.082701044e-14
1.089938088e-14
1.09755458e-14
1.105567776e-14
1.113995516e-14
1.122856229e-14
1.132168938e-14
1.141953265e-14
1.152229437e-14
1.163018287e-14
1.174341259e-14
1.186220406e-14
1.198678393e-14
1.211738494e-14
1.225424591e-14
1.239761173e-14
1.254773326e-14
1.270486733e-14
1.286927662e-14
1.304122964e-14
1.322100056e-14
1.340886913e-14
1.360512058e-14
1.381004544e-14
1.402393938e-14
1.424710309e-14
1.447984203e-14
1.47224663e-14
1.497529034e-14
1.523863277e-14
1.551281613e-14
1.579816658e-14
1.609501367e-14
1.640369004e-14
1.672453111e-14
1.705787474e-14
1.740406097e-14
1.776343161e-14
1.813632991e-14
1.85231002e-14
1.892408751e-14
1.93396372e-14
1.977009453e-14
2.021580429e-14
2.067711039e-14
2.115435542e-14
2.164788024e-14
2.21580236e-14
2.268512163e-14
2.322950748e-14
2.379151089e-14
2.437145771e-14
2.496966954e-14
2.558646328e-14
2.622215072e-14
2.687703814e-14
2.755142591e-14
2.824560812e-14
2.89598722e-14
2.969449853e-14
3.044976016e-14
3.122592245e-14
3.202324275e-14
3.284197018e-14
3.368234527e-14
3.454459985e-14
3.542895674e-14
3.633562962e-14
3.726482288e-14
3.821673151e-14
3.9191541e-14
4.018942734e-14
4.121055695e-14
4.22550868e-14
4.332316443e-14
4.441492808e-14
4.553050691e-14
4.667002115e-14
4.783358243e-14
4.902129405e-14
5.023325141e-14
5.146954239e-14
5.273024787e-14
5.401544226e-14
5.532519413e-14
5.665956685e-14
5.801861936e-14
5.940240696e-14
6.081098216e-14
6.224439564e-14
6.370269728e-14
6.51859372e-14
6.669416696e-14
6.822744076e-14
6.978581678e-14
7.136935858e-14
7.297813654e-14
7.461222944e-14
7.627172611e-14
7.795672712e-14
7.966734665e-14
8.140371435e-14
8.316597733e-14
8.495430229e-14
8.676887766e-14
8.860991588e-14
9.047765579e-14
9.237236507e-14
9.429434284e-14
9.62439223e-14
9.822147349e-14
1.002274062e-13
1.02262173e-13
1.043262721e-13
1.064202508e-13
1.085447088e-13
1.107003012e-13
1.128877426e-13
1.151078104e-13
1.173613484e-13
1.196492712e-13
1.219725677e-13
1.243323053e-13
1.267296343e-13
1.291657922e-13
1.316421078e-13
1.341600065e-13
1.367210143e-13
1.393267632e-13
1.41978996e-13
1.446795713e-13
1.474304689e-13
1.502337961e-13
1.53091791e-13
1.560068321e-13
1.58981441e-13
1.620182886e-13
1.651202023e-13
1.682901722e-13
1.715313577e-13
1.748470942e-13
1.782409005e-13
1.817164852e-13
1.852777546e-13
1.889288192e-13
1.926740017e-13
1.965178448e-13
2.004651186e-13
2.045208286e-13
2.086902248e-13
2.129788106e-13
2.173923515e-13
2.219368846e-13
2.26618729e-13
2.314444963e-13
2.364210986e-13
2.415557599e-13
2.468560272e-13
2.523297826e-13
2.579852545e-13
2.638310303e-13
2.69876069e-13
2.761297147e-13
2.826017102e-13
2.893022115e-13
2.962418033e-13
3.03431514e-13
3.108828328e-13
3.186077269e-13
3.266186591e-13
3.349286073e-13
3.435510843e-13
3.525001586e-13
3.617904768e-13
3.71437287e-13
3.814564632e-13
3.918645321e-13
4.026787004e-13
4.139168853e-13
4.25597746e-13
4.37740718e-13
4.503660499e-13
4.634948441e-13
4.771490997e-13
4.913517605e-13
5.061267681e-13
5.2149912e-13
5.374949349e-13
5.541415266e-13
5.714674873e-13
5.895027833e-13
6.08278865e-13
6.278287951e-13
6.481873984e-13
6.693914388e-13
6.914798289e-13
7.144938816e-13
7.384776117e-13
7.634781004e-13
7.895459392e-13
8.1673577e-13
8.451069468e-13
8.747243486e-13
9.056593807e-13
9.379912103e-13
9.718082962e-13
1.007210283e-12
1.044310356e-12
1.083238162e-12
1.124143445e-12
1.167200582e-12
1.212614217e-12
1.260626304e-12
1.311524878e-12
1.365655014e-12
1.423432496e-12
1.485360895e-12
1.552052894e-12
1.624256931e-12
1.702890486e-12
1.789081673e-12
1.88422122e-12
1.990027427e-12
2.108627348e-12
2.242658264e-12
2.395394501e-12
2.570905939e-12
2.77425613e-12
3.011749916e-12
3.291242905e-12
3.62252827e-12
4.01782015e-12
4.492357775e-12
5.065160444e-12
5.759970957e-12
6.606434527e-12
7.641571833e-12
8.911619533e-12
1.047432975e-11
1.24018428e-11
1.478427582e-11
1.773420532e-11
2.139226597e-11
2.593414282e-11
3.157930298e-11
3.860189824e-11
4.734437691e-11
5.823447573e-11
7.180642821e-11
8.872743159e-11
1.098306706e-10
1.361565142e-10
1.690038976e-10
2.099943923e-10
2.611520761e-10
3.250030721e-10
4.046995581e-10
5.04174209e-10
6.283324623e-10
7.832917636e-10
9.766791241e-10
1.218000996e-09
1.51910276e-09
1.894739136e-09
2.36328175e-09
2.947596085e-09
3.676127301e-09
4.584243232e-09
5.71589347e-09
7.125656155e-09
8.881259287e-09
1.106668132e-08
1.378595699e-08
1.716783891e-08
2.137149408e-08
2.659344668e-08
3.307601531e-08
4.111753278e-08
5.108468039e-08
6.342731384e-08
7.869620433e-08
9.75641619e-08
1.208510462e-07
1.495531981e-07
1.848778366e-07
2.282829541e-07
2.815232022e-07
3.467021746e-07
4.2633137e-07
5.233959294e-07
6.414270065e-07
7.845803301e-07
9.577201746e-07
1.166507574e-06
1.417491231e-06
1.7181992e-06
2.077229136e-06
2.50433468e-06
3.010505506e-06
3.608038643e-06
4.310598986e-06
5.133267327e-06
6.092574827e-06
7.206523498e-06
8.494592954e-06
9.977734318e-06
1.167835284e-05
1.362028134e-05
1.582874706e-05
1.833033599e-05
2.115295672e-05
2.432581105e-05
2.787937518e-05
3.184540025e-05
3.625694531e-05
4.114846441e-05
4.655598841e-05
5.251387867e-05
5.907065847e-05
6.624731413e-05
7.414665259e-05
8.281439286e-05
9.230662538e-05
0.0001023358187
0.000112983989
0.0001239827709
0.0001347593977
0.0001444141253
0.0001520268752
0.0001572062899
0.0001602788272
0.0001618360509
0.0001623371966
0.0001620276995
0.0001610074622
0.0001592886745
0.000156800898
0.0001534194113
0.0001489325359
0.0001432480716
0.0001361154926
0.0001273639634
0.0001169305572
0.000104902777
9.153670818e-05
7.732824535e-05
6.298794467e-05
4.93375605e-05
3.714199731e-05
2.689963555e-05
1.888836535e-05
1.291440675e-05
8.703335465e-06
5.81520249e-06
3.875037614e-06
2.585984298e-06
1.732921232e-06
1.164490558e-06
7.832280589e-07
5.290516861e-07
3.588678812e-07
2.4438218e-07
1.670261841e-07
1.145809042e-07
7.885675676e-08
5.443386201e-08
3.767623757e-08
2.629255406e-08
1.840329142e-08
1.287488944e-08
9.033871875e-09
6.355373009e-09
4.481199033e-09
3.165900461e-09
2.240438124e-09
1.588128144e-09
1.127068332e-09
8.007957047e-10
5.695612657e-10
4.054635328e-10
2.888716165e-10
2.059451823e-10
1.469083669e-10
1.048446303e-10
7.485301631e-11
5.345600375e-11
3.818301289e-11
2.727687584e-11
1.948658171e-11
1.392068996e-11
9.94349066e-12
7.101340371e-12
5.070336303e-12
3.619103403e-12
2.582301174e-12
1.841744248e-12
1.312937315e-12
9.354646102e-13
6.661262328e-13
4.740336343e-13
3.371035316e-13
2.395506722e-13
1.700944365e-13
1.206758289e-13
8.553952417e-14
6.057709101e-14
4.285716873e-14
3.028935957e-14
2.138384806e-14
1.507953067e-14
1.062117108e-14
7.471631279e-15
5.24919174e-15
3.682811949e-15
2.580213545e-15
1.805095359e-15
1.260910088e-15
8.793820196e-16
6.122791206e-16
4.255666286e-16
2.952560427e-16
2.044604148e-16
1.413072906e-16
9.746093898e-17
6.707706692e-17
4.606424281e-17
3.156262625e-17
2.157650535e-17
1.471558286e-17
1.001306664e-17
6.797939839e-18
4.605403783e-18
3.114180725e-18
2.102690833e-18
1.418472867e-18
9.568838703e-19
6.462898265e-19
4.377894443e-19
2.980982453e-19
2.0463185e-19
1.421166765e-19
1.002593111e-19
7.214806974e-20
5.315979048e-20
4.021439899e-20
3.126823951e-20
2.497087755e-20
2.043349143e-20
1.70731942e-20
1.450884453e-20
1.24916433e-20
1.085913671e-20
9.504900279e-21
8.358677536e-21
7.373452733e-21
6.517095717e-21
5.767002396e-21
5.106683871e-21
4.523613155e-21
4.007876276e-21
3.55133277e-21
3.147095132e-21
2.789205516e-21
2.472432727e-21
2.192141498e-21
1.944204538e-21
1.72493959e-21
1.531060986e-21
1.359639718e-21
1.208068685e-21
1.074031389e-21
9.554731878e-22
8.505747363e-22
7.577274384e-22
6.755108462e-22
6.026719705e-22
5.381064539e-22
4.808415417e-22
4.300207645e-22
3.848902284e-22
3.447863964e-22
3.0912524e-22
2.773926372e-22
2.491358942e-22
2.239562764e-22
2.015024391e-22
1.814646562e-22
1.63569756e-22
1.475766793e-22
1.332725863e-22
1.204694445e-22
1.090010379e-22
9.87203475e-23
8.94972533e-23
8.121652083e-23
7.377603436e-23
6.708524677e-23
6.106381867e-23
5.564042296e-23
5.07516943e-23
4.634130527e-23
4.235915355e-23
3.876064629e-23
3.550606976e-23
3.256003366e-23
2.989098105e-23
2.747075586e-23
2.527422095e-23
2.32789207e-23
2.146478264e-23
1.981385351e-23
1.831006573e-23
1.693903042e-23
1.568785414e-23
1.454497632e-23
1.3500025e-23
1.254368886e-23
1.166760355e-23
1.086425061e-23
1.012686765e-23
9.449368497e-24
8.826271997e-24
8.252638716e-24
7.724014494e-24
7.236380129e-24
6.786106499e-24
6.369914514e-24
5.984839353e-24
5.628198522e-24
5.297563291e-24
4.990733167e-24
4.70571304e-24
4.440692732e-24
4.194028678e-24
3.964227506e-24
3.749931321e-24
3.549904499e-24
3.363021838e-24
3.188257916e-24
3.024677529e-24
2.871427097e-24
2.727726934e-24
2.592864292e-24
2.466187102e-24
2.347098324e-24
2.235050873e-24
2.129543026e-24
2.030114287e-24
1.936341654e-24
1.847836245e-24
1.764240247e-24
1.685224161e-24
1.610484309e-24
1.539740573e-24
1.472734351e-24
1.409226703e-24
1.348996671e-24
1.291839752e-24
1.237566515e-24
1.186001341e-24
1.13698128e-24
1.09035501e-24
1.045981893e-24
1.003731108e-24
9.634808707e-25
9.251177122e-25
8.885358281e-25
8.536364806e-25
8.203274531e-25
7.88522552e-25
7.581411501e-25
7.291077691e-25
7.013516973e-25
6.748066386e-25
6.494103908e-25
6.251045507e-25
6.01834242e-25
5.795478666e-25
5.581968749e-25
5.377355547e-25
5.181208363e-25
4.993121136e-25
4.812710782e-25
4.639615668e-25
4.473494202e-25
4.314023526e-25
4.160898307e-25
4.013829623e-25
3.872543924e-25
3.736782073e-25
3.606298456e-25
3.480860151e-25
3.360246161e-25
3.2442467e-25
3.132662524e-25
3.025304318e-25
2.92199211e-25
2.822554738e-25
2.726829349e-25
2.634660924e-25
2.545901844e-25
2.460411478e-25
2.378055803e-25
2.298707038e-25
2.222243315e-25
2.148548359e-25
2.07751119e-25
2.009025854e-25
1.942991152e-25
1.879310401e-25
1.817891201e-25
1.758645219e-25
1.701487983e-25
1.646338693e-25
1.593120035e-25
1.541758013e-25
1.492181788e-25
1.444323522e-25
1.39811824e-25
1.353503686e-25
1.310420203e-25
1.268810603e-25
1.228620059e-25
1.18979599e-25
1.152287964e-25
1.116047593e-25
1.081028445e-25
1.047185955e-25
1.014477341e-25
9.828615239e-26
9.522990526e-26
9.227520337e-26
8.941840619e-26
8.665601559e-26
8.398466966e-26
8.140113686e-26
7.890231046e-26
7.648520324e-26
7.41469424e-26
7.188476474e-26
6.969601211e-26
6.7578127e-26
6.552864836e-26
6.354520767e-26
6.162552506e-26
5.976740575e-26
5.796873652e-26
5.622748247e-26
5.454168382e-26
5.290945291e-26
5.13289713e-26
4.979848701e-26
4.831631189e-26
4.688081909e-26
4.549044067e-26
4.414366524e-26
4.283903579e-26
4.157514758e-26
4.035064606e-26
3.916422502e-26
3.801462463e-26
3.690062974e-26
3.58210681e-26
3.47748088e-26
3.376076062e-26
3.277787063e-26
3.182512265e-26
3.090153593e-26
3.000616381e-26
2.913809239e-26
2.82964394e-26
2.748035297e-26
2.668901053e-26
2.592161771e-26
2.517740734e-26
2.445563837e-26
2.375559502e-26
2.307658579e-26
2.241794261e-26
2.177901997e-26
2.115919412e-26
2.055786226e-26
1.997444185e-26
1.94083698e-26
1.885910184e-26
1.832611183e-26
1.780889108e-26
1.730694781e-26
1.681980647e-26
1.634700723e-26
1.588810537e-26
1.544267082e-26
1.501028757e-26
1.459055323e-26
1.418307854e-26
1.378748695e-26
1.340341412e-26
1.303050752e-26
1.266842603e-26
1.231683956e-26
1.197542866e-26
1.164388412e-26
1.13219067e-26
1.100920669e-26
1.07055037e-26
1.041052624e-26
1.012401148e-26
9.845704953e-27
9.575360232e-27
9.312738704e-27
9.057609295e-27
8.809748211e-27
8.568938698e-27
8.334970819e-27
8.107641214e-27
7.886752884e-27
7.672114983e-27
7.463542608e-27
7.260856622e-27
7.063883434e-27
6.872454836e-27
6.686407836e-27
6.505584469e-27
6.329831643e-27
6.159000979e-27
5.992948657e-27
5.831535261e-27
5.674625646e-27
5.522088809e-27
5.37379773e-27
5.229629263e-27
5.089464009e-27
4.95318618e-27
4.820683515e-27
4.69184714e-27
4.566571475e-27
4.444754112e-27
4.326295741e-27
4.211100027e-27
4.099073524e-27
3.990125594e-27
3.884168306e-27
3.781116352e-27
3.680886975e-27
3.583399878e-27
3.488577146e-27
3.396343184e-27
3.306624629e-27
3.219350298e-27
3.134451103e-27
3.051859994e-27
2.971511907e-27
2.893343682e-27
2.817294009e-27
2.743303388e-27
2.671314053e-27
2.601269933e-27
2.533116586e-27
2.466801166e-27
2.402272355e-27
2.339480337e-27
2.278376739e-27
2.218914584e-27
2.161048264e-27
2.104733482e-27
2.049927224e-27
1.99658772e-27
1.9446744e-27
1.894147852e-27
1.844969805e-27
1.797103087e-27
1.750511582e-27
1.705160213e-27
1.661014901e-27
1.618042542e-27
1.576210972e-27
1.535488946e-27
1.495846106e-27
1.457252959e-27
1.419680838e-27
1.383101893e-27
1.347489063e-27
1.312816051e-27
1.279057301e-27
1.246187974e-27
1.214183933e-27
1.183021716e-27
1.152678519e-27
1.123132182e-27
1.094361165e-27
1.066344529e-27
1.039061919e-27
1.012493546e-27
9.866201724e-28
9.614231004e-28
9.368841518e-28
9.129856474e-28
8.897104036e-28
8.670417043e-28
8.449633042e-28
8.234594057e-28
8.025146434e-28
7.82114079e-28
7.62243184e-28
7.428878273e-28
7.240342683e-28
7.056691433e-28
6.877794511e-28
6.703525484e-28
6.533761389e-28
6.368382571e-28
6.207272658e-28
6.050318446e-28
5.897409792e-28
5.748439537e-28
5.603303408e-28
5.46189997e-28
5.324130523e-28
5.189898979e-28
5.059111886e-28
4.931678252e-28
4.807509524e-28
4.6865195e-28
4.568624269e-28
4.453742186e-28
4.341793678e-28
4.232701289e-28
4.126389631e-28
4.022785249e-28
3.921816578e-28
3.823413943e-28
3.727509446e-28
3.634036909e-28
3.542931808e-28
3.454131278e-28
3.367574007e-28
3.283200221e-28
3.200951531e-28
3.120771037e-28
3.042603153e-28
2.966393627e-28
2.892089454e-28
2.819638832e-28
2.748991151e-28
2.680096874e-28
2.612907563e-28
2.547375754e-28
2.483454978e-28
2.421099692e-28
2.360265211e-28
2.300907672e-28
2.242984033e-28
2.186451978e-28
2.131269888e-28
2.077396806e-28
2.024792414e-28
1.973417037e-28
1.923231562e-28
1.874197474e-28
1.826276859e-28
1.779432393e-28
1.733627424e-28
1.688825934e-28
1.644992655e-28
1.602093086e-28
1.56009345e-28
1.518960636e-28
1.478661948e-28
1.439164359e-28
1.400433491e-28
1.091160966e-28
7.697957996e-29
5.439622195e-29
3.844898149e-29
2.716623193e-29
1.918145363e-29
1.353249892e-29
9.538481791e-30
6.716746949e-30
4.724959953e-30
3.320329941e-30
2.330766619e-30
1.634329494e-30
1.144717667e-30
8.008855887e-31
5.597001075e-31
3.907008248e-31
2.724259332e-31
1.897437482e-31
1.32009021e-31
9.174487833e-32
6.36907885e-32
4.416729597e-32
3.059994718e-32
2.117812538e-32
1.464478463e-32
1.011731276e-32
6.984187342e-33
4.817716298e-33
3.321323397e-33
2.288200583e-33
1.576735905e-33
1.086244615e-33
7.485094326e-34
5.170890597e-34
3.579502852e-34
2.486112028e-34
1.736981292e-34
1.225054505e-34
8.748053621e-35
6.405103325e-35
4.809417441e-35
3.816115661e-35
3.177899744e-35
2.718752326e-35
2.37079682e-35
2.149309017e-35
2.199257133e-35
2.107707699e-35
2.198566807e-35
2.242199768e-35
2.384150378e-35
2.376630096e-35
2.46241316e-35
2.686662039e-35
3.081967333e-35
3.227780502e-35
3.267841588e-35
3.453211976e-35
3.515549884e-35
3.766026092e-35
3.811706091e-35
4.071719206e-35
4.248035259e-35
4.410695814e-35
4.56700533e-35
4.746767822e-35
4.910401393e-35
5.059671924e-35
5.209718082e-35
5.31149857e-35
5.48773372e-35
5.635616363e-35
5.756760301e-35
5.944866262e-35
5.973374041e-35
6.024153267e-35
6.160829627e-35
6.202465356e-35
6.282236763e-35
6.290985189e-35
6.338193346e-35
6.414168358e-35
6.530135312e-35
6.530057438e-35
6.545816629e-35
6.570238313e-35
6.599133429e-35
6.620289436e-35
6.644681681e-35
6.667424186e-35
6.672706588e-35
6.685010799e-35
6.691664986e-35
6.698436857e-35
6.702764782e-35
6.708541412e-35
6.714439195e-35
6.715176736e-35
6.717577286e-35
6.718379414e-35
6.719926562e-35
6.721958193e-35
6.721412973e-35
6.721497688e-35
6.721550473e-35
6.722383933e-35
6.723300773e-35
6.722088934e-35
6.720208456e-35
6.720835399e-35
6.720766942e-35
6.720391399e-35
6.720079441e-35
6.720169402e-35
6.720061286e-35
6.719952507e-35
6.719744733e-35
6.720075943e-35
6.719621943e-35
6.718497514e-35
6.719011258e-35
6.719193484e-35
6.717554645e-35
6.71823609e-35
6.716971769e-35
6.71832587e-35
6.717281013e-35
6.718433299e-35
6.717707796e-35
6.717084693e-35
6.717575377e-35
6.716116374e-35
6.716515807e-35
6.71952936e-35
6.718428901e-35
6.718408079e-35
6.718773978e-35
6.719841148e-35
6.716045168e-35
6.716583988e-35
6.715418845e-35
6.718476657e-35
6.715045971e-35
6.716480346e-35
6.717715091e-35
6.716655555e-35
6.716760718e-35
6.715845044e-35
6.715645798e-35
6.716368421e-35
6.716170418e-35
6.717617803e-35
6.717716274e-35
6.716700565e-35
6.7186626e-35
6.716255625e-35
6.719538595e-35
6.716442343e-35
6.717118691e-35
6.717863015e-35
6.715106125e-35
6.714571407e-35
6.715778695e-35
6.716712953e-35
6.716113857e-35
6.714280469e-35
6.714397284e-35
6.715522354e-35
6.716769026e-35
6.715353208e-35
6.716062673e-35
6.714181252e-35
6.715322136e-35
6.714853717e-35
6.716526993e-35
6.716641135e-35
6.716710216e-35
6.715264243e-35
6.716009756e-35
6.715641437e-35
6.716789617e-35
6.716201794e-35
6.715683239e-35
6.714105746e-35
6.71519657e-35
6.714846465e-35
6.715932662e-35
6.716184215e-35
6.714719076e-35
6.714815971e-35
6.716096721e-35
6.71473488e-35
6.715589025e-35
6.715517446e-35
6.715310984e-35
6.717050831e-35
6.716186597e-35
6.716785629e-35
6.715498517e-35
6.714463217e-35
6.715447172e-35
6.715949504e-35
6.715635966e-35
6.715763661e-35
6.716444896e-35
6.716169336e-35
6.715505498e-35
6.715265461e-35
6.716053595e-35
6.714862818e-35
6.715604408e-35
6.714754737e-35
6.714889485e-35
6.715160409e-35
6.71511218e-35
6.715147336e-35
6.716173016e-35
6.715177404e-35
6.71492187e-35
6.715188297e-35
6.715904263e-35
6.715127255e-35
6.715633952e-35
6.715607757e-35
6.714590066e-35
6.713693449e-35
6.715356763e-35
6.715117344e-35
6.714908005e-35
6.715636183e-35
6.715577264e-35
6.712996983e-35
6.714005362e-35
6.714097125e-35
6.715382973e-35
6.716344068e-35
6.715140819e-35
6.715001143e-35
6.713856781e-35
6.715053918e-35
6.71330992e-35
6.713694402e-35
6.714958092e-35
6.714089528e-35
6.713343809e-35
6.714583838e-35
6.717089537e-35
6.714649582e-35
6.713882828e-35
)
;

boundaryField
{
    inlet
    {
        type            fixedValue;
        value           uniform 0;
    }
    outlet
    {
        type            zeroGradient;
    }
    wall
    {
        type            empty;
    }
}


// ************************************************************************* //
