/*--------------------------------*- C++ -*----------------------------------*\
  =========                 |
  \\      /  F ield         | OpenFOAM: The Open Source CFD Toolbox
   \\    /   O peration     | Website:  https://openfoam.org
    \\  /    A nd           | Version:  7
     \\/     M anipulation  |
\*---------------------------------------------------------------------------*/
FoamFile
{
    version     2.0;
    format      ascii;
    class       volScalarField;
    location    "0.000558243009";
    object      C2H5COCH2_0;
}
// * * * * * * * * * * * * * * * * * * * * * * * * * * * * * * * * * * * * * //

dimensions      [0 0 0 0 0 0 0];

internalField   nonuniform List<scalar> 
1500
(
8.141612014e-19
3.168822971e-18
6.51679096e-18
9.728432999e-18
1.208049372e-17
1.348773875e-17
1.420301524e-17
1.451946557e-17
1.464342231e-17
1.468699208e-17
1.470088818e-17
1.470494788e-17
1.470604303e-17
1.47063177e-17
1.470638212e-17
1.470639633e-17
1.470639928e-17
1.470639987e-17
1.470639998e-17
1.47064e-17
1.47064e-17
1.47064e-17
1.47064e-17
1.47064e-17
1.47064e-17
1.47064e-17
1.47064e-17
1.47064e-17
1.47064e-17
1.47064e-17
1.47064e-17
1.47064e-17
1.47064e-17
1.47064e-17
1.47064e-17
1.47064e-17
1.47064e-17
1.47064e-17
1.47064e-17
1.47064e-17
1.47064e-17
1.47064e-17
1.47064e-17
1.47064e-17
1.47064e-17
1.47064e-17
1.47064e-17
1.47064e-17
1.47064e-17
1.47064e-17
1.47064e-17
1.47064e-17
1.47064e-17
1.47064e-17
1.47064e-17
1.47064e-17
1.47064e-17
1.47064e-17
1.47064e-17
1.47064e-17
1.47064e-17
1.47064e-17
1.47064e-17
1.47064e-17
1.47064e-17
1.47064e-17
1.47064e-17
1.47064e-17
1.47064e-17
1.47064e-17
1.47064e-17
1.47064e-17
1.47064e-17
1.47064e-17
1.47064e-17
1.47064e-17
1.47064e-17
1.47064e-17
1.47064e-17
1.47064e-17
1.47064e-17
1.47064e-17
1.47064e-17
1.47064e-17
1.47064e-17
1.47064e-17
1.47064e-17
1.47064e-17
1.47064e-17
1.47064e-17
1.47064e-17
1.47064e-17
1.47064e-17
1.47064e-17
1.47064e-17
1.47064e-17
1.47064e-17
1.47064e-17
1.47064e-17
1.47064e-17
1.47064e-17
1.47064e-17
1.47064e-17
1.47064e-17
1.47064e-17
1.47064e-17
1.47064e-17
1.47064e-17
1.47064e-17
1.47064e-17
1.47064e-17
1.47064e-17
1.47064e-17
1.47064e-17
1.47064e-17
1.47064e-17
1.47064e-17
1.47064e-17
1.47064e-17
1.47064e-17
1.47064e-17
1.47064e-17
1.47064e-17
1.47064e-17
1.47064e-17
1.47064e-17
1.47064e-17
1.47064e-17
1.47064e-17
1.47064e-17
1.47064e-17
1.47064e-17
1.47064e-17
1.47064e-17
1.47064e-17
1.47064e-17
1.47064e-17
1.47064e-17
1.47064e-17
1.47064e-17
1.47064e-17
1.47064e-17
1.47064e-17
1.47064e-17
1.47064e-17
1.47064e-17
1.47064e-17
1.47064e-17
1.47064e-17
1.47064e-17
1.47064e-17
1.47064e-17
1.47064e-17
1.47064e-17
1.47064e-17
1.47064e-17
1.47064e-17
1.47064e-17
1.47064e-17
1.47064e-17
1.47064e-17
1.47064e-17
1.47064e-17
1.47064e-17
1.47064e-17
1.47064e-17
1.47064e-17
1.47064e-17
1.47064e-17
1.47064e-17
1.47064e-17
1.47064e-17
1.47064e-17
1.47064e-17
1.47064e-17
1.47064e-17
1.47064e-17
1.47064e-17
1.47064e-17
1.47064e-17
1.47064e-17
1.47064e-17
1.47064e-17
1.47064e-17
1.47064e-17
1.47064e-17
1.47064e-17
1.47064e-17
1.47064e-17
1.47064e-17
1.47064e-17
1.47064e-17
1.47064e-17
1.47064e-17
1.47064e-17
1.47064e-17
1.47064e-17
1.47064e-17
1.47064e-17
1.47064e-17
1.47064e-17
1.47064e-17
1.47064e-17
1.47064e-17
1.47064e-17
1.47064e-17
1.47064e-17
1.47064e-17
1.47064e-17
1.47064e-17
1.47064e-17
1.47064e-17
1.47064e-17
1.47064e-17
1.47064e-17
1.47064e-17
1.47064e-17
1.47064e-17
1.47064e-17
1.47064e-17
1.47064e-17
1.47064e-17
1.47064e-17
1.47064e-17
1.47064e-17
1.47064e-17
1.47064e-17
1.47064e-17
1.47064e-17
1.47064e-17
1.47064e-17
1.47064e-17
1.47064e-17
1.47064e-17
1.47064e-17
1.47064e-17
1.47064e-17
1.47064e-17
1.470640001e-17
1.470640003e-17
1.470640012e-17
1.47064005e-17
1.470640205e-17
1.470640796e-17
1.470642866e-17
1.470649463e-17
1.470668348e-17
1.470715873e-17
1.470816473e-17
1.470974423e-17
1.471014428e-17
1.471029269e-17
1.471044731e-17
1.471060837e-17
1.471077609e-17
1.47109507e-17
1.471113249e-17
1.471132175e-17
1.471151882e-17
1.471172402e-17
1.471193772e-17
1.471216027e-17
1.471239207e-17
1.47126335e-17
1.4712885e-17
1.4713147e-17
1.471341995e-17
1.471370433e-17
1.471400066e-17
1.471430944e-17
1.471463124e-17
1.471496663e-17
1.471531621e-17
1.471568062e-17
1.471606051e-17
1.471645659e-17
1.471686958e-17
1.471730025e-17
1.471774939e-17
1.471821785e-17
1.471870652e-17
1.471921631e-17
1.47197482e-17
1.472030322e-17
1.472088244e-17
1.472148698e-17
1.472211804e-17
1.472277687e-17
1.472346478e-17
1.472418315e-17
1.472493345e-17
1.47257172e-17
1.472653603e-17
1.472739165e-17
1.472828584e-17
1.472922051e-17
1.473019767e-17
1.473121942e-17
1.4732288e-17
1.473340577e-17
1.473457524e-17
1.473579903e-17
1.473707994e-17
1.473842094e-17
1.473982514e-17
1.474129587e-17
1.474283664e-17
1.474445118e-17
1.474614344e-17
1.474791761e-17
1.474977816e-17
1.47517298e-17
1.475377756e-17
1.475592677e-17
1.475818312e-17
1.476055262e-17
1.476304169e-17
1.476565717e-17
1.476840632e-17
1.477129687e-17
1.477433706e-17
1.477753566e-17
1.478090202e-17
1.47844461e-17
1.478817851e-17
1.479211055e-17
1.47962543e-17
1.48006226e-17
1.480522917e-17
1.481008862e-17
1.481521655e-17
1.482062957e-17
1.482634541e-17
1.483238297e-17
1.483876242e-17
1.484550525e-17
1.485263438e-17
1.486017424e-17
1.486815088e-17
1.487659206e-17
1.488552734e-17
1.489498826e-17
1.490500839e-17
1.491562347e-17
1.492687156e-17
1.49387932e-17
1.495143148e-17
1.496483228e-17
1.497904437e-17
1.49941196e-17
1.501011307e-17
1.502708332e-17
1.504509251e-17
1.50642066e-17
1.508449562e-17
1.510603378e-17
1.512889981e-17
1.515317706e-17
1.517895387e-17
1.520632369e-17
1.523538544e-17
1.526624368e-17
1.529900894e-17
1.533379795e-17
1.537073396e-17
1.5409947e-17
1.545157419e-17
1.549576e-17
1.554265663e-17
1.559242424e-17
1.564523132e-17
1.570125499e-17
1.57606813e-17
1.582370558e-17
1.589053277e-17
1.596137771e-17
1.60364655e-17
1.61160318e-17
1.620032318e-17
1.628959741e-17
1.638412378e-17
1.648418343e-17
1.659006963e-17
1.670208807e-17
1.682055717e-17
1.694580832e-17
1.707818617e-17
1.721804888e-17
1.73657683e-17
1.752173027e-17
1.768633473e-17
1.785999596e-17
1.804314272e-17
1.823621835e-17
1.843968092e-17
1.86540033e-17
1.88796732e-17
1.91171932e-17
1.936708074e-17
1.96298681e-17
1.99061023e-17
2.019634502e-17
2.050117241e-17
2.082117496e-17
2.115695724e-17
2.150913765e-17
2.187834812e-17
2.226523377e-17
2.26704525e-17
2.309467456e-17
2.353858212e-17
2.400286871e-17
2.448823863e-17
2.499540644e-17
2.552509618e-17
2.60780408e-17
2.665498134e-17
2.725666616e-17
2.788385015e-17
2.853729385e-17
2.921776253e-17
2.99260253e-17
3.066285408e-17
3.142902261e-17
3.222530542e-17
3.305247676e-17
3.391130947e-17
3.480257392e-17
3.572703677e-17
3.668545991e-17
3.767859922e-17
3.870720338e-17
3.977201269e-17
4.087375787e-17
4.201315885e-17
4.319092355e-17
4.440774671e-17
4.566430871e-17
4.69612744e-17
4.829929192e-17
4.967899165e-17
5.110098506e-17
5.25658637e-17
5.407419814e-17
5.562653704e-17
5.722340621e-17
5.886530774e-17
6.055271919e-17
6.228609287e-17
6.406585512e-17
6.589240576e-17
6.776611751e-17
6.96873356e-17
7.165637738e-17
7.367353209e-17
7.573906066e-17
7.785319567e-17
8.001614141e-17
8.2228074e-17
8.448914169e-17
8.679946521e-17
8.915913833e-17
9.156822847e-17
9.402677749e-17
9.653480255e-17
9.909229723e-17
1.016992327e-16
1.043555589e-16
1.070612063e-16
1.098160875e-16
1.126200986e-16
1.15473122e-16
1.183750276e-16
1.213256757e-16
1.243249194e-16
1.27372607e-16
1.304685852e-16
1.336127019e-16
1.368048092e-16
1.400447674e-16
1.43332448e-16
1.466677379e-16
1.500505432e-16
1.534807936e-16
1.569584467e-16
1.604834927e-16
1.640559593e-16
1.676759169e-16
1.713434838e-16
1.750588321e-16
1.788221931e-16
1.826338638e-16
1.864942129e-16
1.904036877e-16
1.943628211e-16
1.983722382e-16
2.024326644e-16
2.065449326e-16
2.107099914e-16
2.149289135e-16
2.192029044e-16
2.235333108e-16
2.279216304e-16
2.323695212e-16
2.368788111e-16
2.414515086e-16
2.460898131e-16
2.507961256e-16
2.5557306e-16
2.604234548e-16
2.653503848e-16
2.703571736e-16
2.754474071e-16
2.806249441e-16
2.85893935e-16
2.912588313e-16
2.967243988e-16
3.022957349e-16
3.079782828e-16
3.137778474e-16
3.197006116e-16
3.257531522e-16
3.319424564e-16
3.382759393e-16
3.447614605e-16
3.514073419e-16
3.582223856e-16
3.652158928e-16
3.723976805e-16
3.797781037e-16
3.873680746e-16
3.951790838e-16
4.032232201e-16
4.115131963e-16
4.200623694e-16
4.288847615e-16
4.379950841e-16
4.47408763e-16
4.571419639e-16
4.672116177e-16
4.776354475e-16
4.884319962e-16
4.996206548e-16
5.112216922e-16
5.23256286e-16
5.357465543e-16
5.487155893e-16
5.621874914e-16
5.761874061e-16
5.907415613e-16
6.058773068e-16
6.216231566e-16
6.380088312e-16
6.550653045e-16
6.728248513e-16
6.913210981e-16
7.105890768e-16
7.306652809e-16
7.515877254e-16
7.7339601e-16
7.96131386e-16
8.198368275e-16
8.445571065e-16
8.70338874e-16
8.972307448e-16
9.252833896e-16
9.545496326e-16
9.850845565e-16
1.016945616e-15
1.050192759e-15
1.084888559e-15
1.121098364e-15
1.158890447e-15
1.198336188e-15
1.239510268e-15
1.282490882e-15
1.327359998e-15
1.374203631e-15
1.423112177e-15
1.4741808e-15
1.527509882e-15
1.583205577e-15
1.641380465e-15
1.702154363e-15
1.765655319e-15
1.832020848e-15
1.901399487e-15
1.973952742e-15
2.049857571e-15
2.12930953e-15
2.212526812e-15
2.299755408e-15
2.391275765e-15
2.487411348e-15
2.588539708e-15
2.695106791e-15
2.807645458e-15
2.92679949e-15
3.053354718e-15
3.188279407e-15
3.332776695e-15
3.488352687e-15
3.656904913e-15
3.840837261e-15
4.043209342e-15
4.267930611e-15
4.520012693e-15
4.805897374e-15
5.133882966e-15
5.514678563e-15
5.962124547e-15
6.494129214e-15
7.133886308e-15
7.91145769e-15
8.86583054e-15
1.004759131e-14
1.152240114e-14
1.337551265e-14
1.571764006e-14
1.869258721e-14
2.248715973e-14
2.734404398e-14
3.357853956e-14
4.16002965e-14
5.194155137e-14
6.529380157e-14
8.255543399e-14
1.048935728e-13
1.338243802e-13
1.71317301e-13
2.199303684e-13
2.829857943e-13
3.647977963e-13
4.709681329e-13
6.08769383e-13
7.876418853e-13
1.019837857e-12
1.321256007e-12
1.712522596e-12
2.220391141e-12
2.879553886e-12
3.734984986e-12
4.844969801e-12
6.285018763e-12
8.152920614e-12
1.057526166e-11
1.371582907e-11
1.778643239e-11
2.306082396e-11
2.989258448e-11
3.873807219e-11
5.018582552e-11
6.499417111e-11
8.413923804e-11
1.088761309e-10
1.408166892e-10
1.820280762e-10
2.351574228e-10
3.035889125e-10
3.916410564e-10
5.048134779e-10
6.500943021e-10
8.363412101e-10
1.074751328e-09
1.379437309e-09
1.768129105e-09
2.263022889e-09
2.891800135e-09
3.688840757e-09
4.696654174e-09
5.967550832e-09
7.565573847e-09
9.56870565e-09
1.207135785e-08
1.518714368e-08
1.905192197e-08
2.382708951e-08
2.970308638e-08
3.690306652e-08
4.568667533e-08
5.635386813e-08
6.924869905e-08
8.476300985e-08
1.033399521e-07
1.254772838e-07
1.517303927e-07
1.827150134e-07
2.191096267e-07
2.616575589e-07
3.111688766e-07
3.685221967e-07
4.346668062e-07
5.106257009e-07
5.975008881e-07
6.964836583e-07
8.088750611e-07
9.36125496e-07
1.07980075e-06
1.242126198e-06
1.424817368e-06
1.632213982e-06
1.865998112e-06
2.123535747e-06
2.378084572e-06
2.589566816e-06
2.673065632e-06
2.523330188e-06
2.093252785e-06
1.483787267e-06
9.025610178e-07
4.912901162e-07
2.537944641e-07
1.306430038e-07
6.881259194e-08
3.693482848e-08
2.066239503e-08
1.192950351e-08
7.094604653e-09
4.294770119e-09
2.66813092e-09
1.684183206e-09
1.076481839e-09
6.958043116e-10
4.543179072e-10
2.991895292e-10
1.983685359e-10
1.321480943e-10
8.827867782e-11
5.903159327e-11
3.939014022e-11
2.629475598e-11
1.748635908e-11
1.164196298e-11
7.748009535e-12
5.158097521e-12
3.437687107e-12
2.296079537e-12
1.533106601e-12
1.020626272e-12
6.802648655e-13
4.541078251e-13
3.03609986e-13
2.032858293e-13
1.363297629e-13
9.15515911e-14
6.153694721e-14
4.139991876e-14
2.808197999e-14
1.908114765e-14
1.293027393e-14
8.778282938e-15
5.968674811e-15
4.063236045e-15
2.768643886e-15
1.887816587e-15
1.288192917e-15
8.792340776e-16
6.002981779e-16
4.099512899e-16
2.800069721e-16
1.912707638e-16
1.306608595e-16
8.925555983e-17
6.096701459e-17
4.163922983e-17
2.843399511e-17
1.941247414e-17
1.324991545e-17
9.041010338e-18
6.167028307e-18
4.205083044e-18
2.866147367e-18
1.95269566e-18
1.329752248e-18
9.050995831e-19
6.157468636e-19
4.186784182e-19
2.845283228e-19
1.932559946e-19
1.31190128e-19
8.900834296e-20
6.035665815e-20
4.090641273e-20
2.771022145e-20
1.876229963e-20
1.269842432e-20
8.591272847e-21
5.810884805e-21
3.929572783e-21
2.657157557e-21
1.796881868e-21
1.215418097e-21
8.224766769e-22
5.569508229e-22
3.775085872e-22
2.56209007e-22
1.741732311e-22
1.18651147e-22
8.103501125e-23
5.551527972e-23
3.817162538e-23
2.635865072e-23
1.829101409e-23
1.276339901e-23
8.961600189e-24
6.335137732e-24
4.51139247e-24
3.237744268e-24
2.342586062e-24
1.709055341e-24
1.257330766e-24
9.326958592e-25
6.97485353e-25
5.256456315e-25
3.990556666e-25
3.050341579e-25
2.346465676e-25
1.815521566e-25
1.41216121e-25
1.103690598e-25
8.663440364e-26
6.827024666e-26
5.398938286e-26
4.283302805e-26
3.408157696e-26
2.719105149e-26
2.174748198e-26
1.743389189e-26
1.400620551e-26
1.127552245e-26
9.094972021e-27
7.349889086e-27
5.950419141e-27
4.825914202e-27
3.920659482e-27
3.190596364e-27
2.600796503e-27
2.123505908e-27
1.736624141e-27
1.42251744e-27
1.16708939e-27
9.590510754e-28
7.893463537e-28
6.506981773e-28
5.372496552e-28
4.442794895e-28
3.679759341e-28
3.052569149e-28
2.53626637e-28
2.110610881e-28
1.759164686e-28
1.468558459e-28
1.227903155e-28
1.028317309e-28
8.625467231e-29
7.246580466e-29
6.097915445e-29
5.139613424e-29
4.338938098e-29
3.668966184e-29
3.107525128e-29
2.636330119e-29
2.240282091e-29
1.906895926e-29
1.625834096e-29
1.388525814e-29
1.187855606e-29
1.01790833e-29
8.737601434e-30
7.513069217e-30
6.47123241e-30
5.583463385e-30
4.825805043e-30
4.178182125e-30
3.62374979e-30
3.148354925e-30
2.740090116e-30
2.388923907e-30
2.086393922e-30
1.825351839e-30
1.599751223e-30
1.40447078e-30
1.23516695e-30
1.088150816e-30
9.602852027e-31
8.488985334e-31
7.517126441e-31
6.667822113e-31
5.924438657e-31
5.272733914e-31
4.700496827e-31
4.197243528e-31
3.753960789e-31
3.362889186e-31
3.017339599e-31
2.711537744e-31
2.440492286e-31
2.199882824e-31
1.985964642e-31
1.795487607e-31
1.625627037e-31
1.473924703e-31
1.338238404e-31
1.216698841e-31
1.107672659e-31
1.009730764e-31
9.216211132e-32
8.422453197e-32
7.70638522e-32
7.059520314e-32
6.47438362e-32
5.944382995e-32
5.463697171e-32
5.027178916e-32
4.630271092e-32
4.268933789e-32
3.93958102e-32
3.639025643e-32
3.364431393e-32
3.113271055e-32
2.883289953e-32
2.67247404e-32
2.479021973e-32
2.301320656e-32
2.137923799e-32
1.98753308e-32
1.8489816e-32
1.721219318e-32
1.603300228e-32
1.494371041e-32
1.393661203e-32
1.300474067e-32
1.214179086e-32
1.134204893e-32
1.060033173e-32
9.911932131e-33
9.272570711e-33
8.678352689e-33
8.125729615e-33
7.611465205e-33
7.132604862e-33
6.686448442e-33
6.270525895e-33
5.882575465e-33
5.520524153e-33
5.182470182e-33
4.866667265e-33
4.571510447e-33
4.295523375e-33
4.037346831e-33
3.795728384e-33
3.569513059e-33
3.357634902e-33
3.159109348e-33
2.973026319e-33
2.798543968e-33
2.634882995e-33
2.481321501e-33
2.337190299e-33
2.201868655e-33
2.074780411e-33
1.955390444e-33
1.843201444e-33
1.73775097e-33
1.638608756e-33
1.545374253e-33
1.457674376e-33
1.375161436e-33
1.297511251e-33
1.224421407e-33
1.155609663e-33
1.090812484e-33
1.029783692e-33
9.722932238e-34
9.181259875e-34
8.670808054e-34
8.189694421e-34
7.736157038e-34
7.308546097e-34
6.905316222e-34
6.525019375e-34
6.166298273e-34
5.827880287e-34
5.508571803e-34
5.207252974e-34
4.922872856e-34
4.654444897e-34
4.401042738e-34
4.161796314e-34
3.935888219e-34
3.72255034e-34
3.5210607e-34
3.330740539e-34
3.150951585e-34
2.981093501e-34
2.820601518e-34
2.668944216e-34
2.525621461e-34
2.39016247e-34
2.262124002e-34
2.141088678e-34
2.026663399e-34
1.918477873e-34
1.816183232e-34
1.719450741e-34
1.627970588e-34
1.541450749e-34
1.45961593e-34
1.382206564e-34
1.308977887e-34
1.239699055e-34
1.174152329e-34
1.112132299e-34
1.05344517e-34
9.979080716e-35
9.45348432e-35
8.956033722e-35
8.485191479e-35
8.039506183e-35
7.617607519e-35
7.218201588e-35
6.840066521e-35
6.482048355e-35
6.143057138e-35
5.822063298e-35
5.518094188e-35
5.230230873e-35
4.957605068e-35
4.699396283e-35
4.454829119e-35
4.22317073e-35
4.003728434e-35
3.795847444e-35
3.598908768e-35
3.412327183e-35
3.235549368e-35
3.068052107e-35
2.909340634e-35
2.75894703e-35
2.616428756e-35
2.481367235e-35
2.353366527e-35
2.232052082e-35
2.117069557e-35
2.008083709e-35
1.904777343e-35
1.806850316e-35
1.714018609e-35
1.626013443e-35
1.542580439e-35
1.463478843e-35
1.388480773e-35
1.317370524e-35
1.249943901e-35
1.1860076e-35
1.125378611e-35
1.067883664e-35
1.013358696e-35
9.616483619e-36
9.126055569e-36
8.660909763e-36
8.219726908e-36
7.80125753e-36
7.404318197e-36
7.027787992e-36
6.670605146e-36
6.331763871e-36
6.010311371e-36
5.705344982e-36
5.416009539e-36
5.141494792e-36
4.881033036e-36
4.633896837e-36
4.399396893e-36
4.176880013e-36
3.965727179e-36
3.765351756e-36
3.575197747e-36
3.394738195e-36
3.22347363e-36
3.060930626e-36
2.906660421e-36
2.760237614e-36
2.621258927e-36
2.489342049e-36
2.364124529e-36
2.245262729e-36
2.132430838e-36
2.025319923e-36
1.923637064e-36
1.8271045e-36
1.735458841e-36
1.648450307e-36
1.565842026e-36
1.487409355e-36
1.412939236e-36
1.342229603e-36
1.275088798e-36
1.211335033e-36
1.15079587e-36
1.09330774e-36
1.038715486e-36
9.868719171e-37
9.376374009e-37
8.908794651e-37
8.46472432e-37
8.042970607e-37
7.642402211e-37
7.261945716e-37
6.900582587e-37
6.557346394e-37
6.231320072e-37
5.921633384e-37
5.62746051e-37
5.348017732e-37
5.08256131e-37
4.83038538e-37
4.590820063e-37
4.363229545e-37
4.147010338e-37
3.941589664e-37
3.746423838e-37
3.560996789e-37
3.384818656e-37
3.217424421e-37
3.058372648e-37
2.907244269e-37
2.763641459e-37
2.627186532e-37
2.497520913e-37
2.374304163e-37
2.25721306e-37
2.145940721e-37
2.04019576e-37
1.939701492e-37
1.844195202e-37
1.753427432e-37
1.667161285e-37
1.585171831e-37
1.507245433e-37
1.433179228e-37
1.362780558e-37
1.295866465e-37
1.232263176e-37
1.171805653e-37
1.114337161e-37
1.059708827e-37
1.007779246e-37
9.58414103e-38
9.114858318e-38
8.668732522e-38
8.244612499e-38
7.841404864e-38
7.458070902e-38
7.093623935e-38
6.747126539e-38
6.417688192e-38
6.104462911e-38
5.806647009e-38
5.523476837e-38
5.25422689e-38
4.9982079e-38
4.754764952e-38
4.523275785e-38
4.303149155e-38
4.093823235e-38
3.894764225e-38
3.705464831e-38
3.52544305e-38
3.354240868e-38
3.191423011e-38
3.036575843e-38
2.889306289e-38
2.74924076e-38
2.616024255e-38
2.489319383e-38
2.36880546e-38
2.25417774e-38
2.145146528e-38
2.041436518e-38
1.942786037e-38
1.848946375e-38
1.759681137e-38
1.674765617e-38
1.593986212e-38
1.517139874e-38
1.444033602e-38
1.374483907e-38
1.308316394e-38
1.24536527e-38
1.185472913e-38
1.128489468e-38
1.074272484e-38
1.022686527e-38
9.736028359e-39
9.268989712e-39
8.824585518e-39
8.401709109e-39
7.999308288e-39
7.616382472e-39
7.251980301e-39
6.90519724e-39
6.575173072e-39
6.261089817e-39
5.962169757e-39
5.677673171e-39
5.406896509e-39
5.149170915e-39
4.903860133e-39
4.670359058e-39
4.448092212e-39
4.236512318e-39
4.035098748e-39
3.843356207e-39
3.660813703e-39
3.487023148e-39
3.321558248e-39
3.164013455e-39
3.014003061e-39
2.871159944e-39
2.735134933e-39
2.605595669e-39
2.48222596e-39
2.364724978e-39
2.252806336e-39
2.146197574e-39
2.044639264e-39
1.947884517e-39
1.855698319e-39
1.767856977e-39
1.684147506e-39
1.604367234e-39
1.528323155e-39
1.455831569e-39
1.386717655e-39
1.32081509e-39
1.25796578e-39
1.198019553e-39
1.140833996e-39
1.086274444e-39
1.034214148e-39
9.845346925e-40
9.371268735e-40
8.918920916e-40
8.487448981e-40
8.076170274e-40
7.68463789e-40
7.312744312e-40
6.960885422e-40
6.630223674e-40
4.130802641e-40
2.180209197e-40
1.167792384e-40
6.373238251e-41
3.554672262e-41
2.032704157e-41
1.194716476e-41
7.225286161e-42
4.493634368e-42
2.867852715e-42
1.871966052e-42
1.244958869e-42
8.403280915e-43
5.736732767e-43
3.949320375e-43
2.7352775e-43
1.902420092e-43
1.326966556e-43
9.273174854e-44
6.487860683e-44
4.542357119e-44
3.181145065e-44
2.227965167e-44
1.560451562e-44
1.092698445e-44
7.650740384e-45
5.355445881e-45
3.748292041e-45
2.62308504e-45
1.835646856e-45
1.284436549e-45
8.993882228e-46
6.300235982e-46
4.416170541e-46
3.104756265e-46
2.188730424e-46
1.54833441e-46
1.102314482e-46
7.926327007e-47
5.772145605e-47
4.312455746e-47
3.303062964e-47
2.675227318e-47
2.273744508e-47
1.980308534e-47
1.769134242e-47
1.648882499e-47
1.727042675e-47
1.654318447e-47
1.767395755e-47
1.837854626e-47
2.009105659e-47
2.073848946e-47
2.151436486e-47
2.406309152e-47
2.822071784e-47
2.994206078e-47
3.076979321e-47
3.322750087e-47
3.430168692e-47
3.71697462e-47
3.831816019e-47
4.158030574e-47
4.393781604e-47
4.608759295e-47
4.833969464e-47
5.079680899e-47
5.310520036e-47
5.524220746e-47
5.743913193e-47
5.901942689e-47
6.140721622e-47
6.361849046e-47
6.531180612e-47
6.781263289e-47
6.866540546e-47
6.954848387e-47
7.143692976e-47
7.212727395e-47
7.330342985e-47
7.357266278e-47
7.439952794e-47
7.555187936e-47
7.703404152e-47
7.714706688e-47
7.748135848e-47
7.789479059e-47
7.834299352e-47
7.863054129e-47
7.897477948e-47
7.930870442e-47
7.940680575e-47
7.96038546e-47
7.969693278e-47
7.981864378e-47
7.988236507e-47
7.996771214e-47
8.005271298e-47
8.007053114e-47
8.010343412e-47
8.012384077e-47
8.014295078e-47
8.017269843e-47
8.016708159e-47
8.016840801e-47
8.017016228e-47
8.017979371e-47
8.018932928e-47
8.017051005e-47
8.014625753e-47
8.015137548e-47
8.014588901e-47
8.014222867e-47
8.013628136e-47
8.013403509e-47
8.013338628e-47
8.012828811e-47
8.012530716e-47
8.012598305e-47
8.011937445e-47
8.010399001e-47
8.010933473e-47
8.011082307e-47
8.008924376e-47
8.009797268e-47
8.007997921e-47
8.009742233e-47
8.0082408e-47
8.009674595e-47
8.008651941e-47
8.007899402e-47
8.008483062e-47
8.006552854e-47
8.007124983e-47
8.010520749e-47
8.009070957e-47
8.009139853e-47
8.009587893e-47
8.01084573e-47
8.005961892e-47
8.006456561e-47
8.005137011e-47
8.008606902e-47
8.004394629e-47
8.005824417e-47
8.007484657e-47
8.006420095e-47
8.006533111e-47
8.005273179e-47
8.004558134e-47
8.005795772e-47
8.005900341e-47
8.00727758e-47
8.007479981e-47
8.005832837e-47
8.008405654e-47
8.005652021e-47
8.008841677e-47
8.005713459e-47
8.006329568e-47
8.00705432e-47
8.00370824e-47
8.003339084e-47
8.004331425e-47
8.005575163e-47
8.004765302e-47
8.002915328e-47
8.002943441e-47
8.004148529e-47
8.005660887e-47
8.004150137e-47
8.005232496e-47
8.00281059e-47
8.003477706e-47
8.003147509e-47
8.005607294e-47
8.005529836e-47
8.005553458e-47
8.003846394e-47
8.004622127e-47
8.004246099e-47
8.005301905e-47
8.00484849e-47
8.004332828e-47
8.002350354e-47
8.00352153e-47
8.003256067e-47
8.004488413e-47
8.004963461e-47
8.003281903e-47
8.003023803e-47
8.004794891e-47
8.003073382e-47
8.004097305e-47
8.003690601e-47
8.003917154e-47
8.005532977e-47
8.005131754e-47
8.005549953e-47
8.004239298e-47
8.002932039e-47
8.003968475e-47
8.004690077e-47
8.004220991e-47
8.004481469e-47
8.0054556e-47
8.004996653e-47
8.004265554e-47
8.003611287e-47
8.004968872e-47
8.003302048e-47
8.004315953e-47
8.003396205e-47
8.00366232e-47
8.003717395e-47
8.003810543e-47
8.003822586e-47
8.004971784e-47
8.003928596e-47
8.003526557e-47
8.003897847e-47
8.004698738e-47
8.003805519e-47
8.004394277e-47
8.004353025e-47
8.003148568e-47
8.002053119e-47
8.004014953e-47
8.003871609e-47
8.003405313e-47
8.004306992e-47
8.004240699e-47
8.001134718e-47
8.002609655e-47
8.002512164e-47
8.004125882e-47
8.005137804e-47
8.003730072e-47
8.003522993e-47
8.002251328e-47
8.003839741e-47
8.001525928e-47
8.001993674e-47
8.003556654e-47
8.002265527e-47
8.001176183e-47
8.002974017e-47
8.005454845e-47
8.002928601e-47
8.002299927e-47
)
;

boundaryField
{
    inlet
    {
        type            fixedValue;
        value           uniform 0;
    }
    outlet
    {
        type            zeroGradient;
    }
    wall
    {
        type            empty;
    }
}


// ************************************************************************* //
