/*--------------------------------*- C++ -*----------------------------------*\
  =========                 |
  \\      /  F ield         | OpenFOAM: The Open Source CFD Toolbox
   \\    /   O peration     | Website:  https://openfoam.org
    \\  /    A nd           | Version:  7
     \\/     M anipulation  |
\*---------------------------------------------------------------------------*/
FoamFile
{
    version     2.0;
    format      ascii;
    class       volScalarField;
    location    "0.000558243009";
    object      C2H5COCH2;
}
// * * * * * * * * * * * * * * * * * * * * * * * * * * * * * * * * * * * * * //

dimensions      [0 0 0 0 0 0 0];

internalField   nonuniform List<scalar> 
1500
(
8.135816949e-19
3.167122139e-18
6.514330404e-18
9.726037153e-18
1.207871061e-17
1.34866554e-17
1.420245731e-17
1.451921602e-17
1.464332363e-17
1.46869571e-17
1.470087694e-17
1.470494457e-17
1.470604213e-17
1.470631747e-17
1.470638207e-17
1.470639631e-17
1.470639928e-17
1.470639987e-17
1.470639998e-17
1.47064e-17
1.47064e-17
1.47064e-17
1.47064e-17
1.47064e-17
1.47064e-17
1.47064e-17
1.47064e-17
1.47064e-17
1.47064e-17
1.47064e-17
1.47064e-17
1.47064e-17
1.47064e-17
1.47064e-17
1.47064e-17
1.47064e-17
1.47064e-17
1.47064e-17
1.47064e-17
1.47064e-17
1.47064e-17
1.47064e-17
1.47064e-17
1.47064e-17
1.47064e-17
1.47064e-17
1.47064e-17
1.47064e-17
1.47064e-17
1.47064e-17
1.47064e-17
1.47064e-17
1.47064e-17
1.47064e-17
1.47064e-17
1.47064e-17
1.47064e-17
1.47064e-17
1.47064e-17
1.47064e-17
1.47064e-17
1.47064e-17
1.47064e-17
1.47064e-17
1.47064e-17
1.47064e-17
1.47064e-17
1.47064e-17
1.47064e-17
1.47064e-17
1.47064e-17
1.47064e-17
1.47064e-17
1.47064e-17
1.47064e-17
1.47064e-17
1.47064e-17
1.47064e-17
1.47064e-17
1.47064e-17
1.47064e-17
1.47064e-17
1.47064e-17
1.47064e-17
1.47064e-17
1.47064e-17
1.47064e-17
1.47064e-17
1.47064e-17
1.47064e-17
1.47064e-17
1.47064e-17
1.47064e-17
1.47064e-17
1.47064e-17
1.47064e-17
1.47064e-17
1.47064e-17
1.47064e-17
1.47064e-17
1.47064e-17
1.47064e-17
1.47064e-17
1.47064e-17
1.47064e-17
1.47064e-17
1.47064e-17
1.47064e-17
1.47064e-17
1.47064e-17
1.47064e-17
1.47064e-17
1.47064e-17
1.47064e-17
1.47064e-17
1.47064e-17
1.47064e-17
1.47064e-17
1.47064e-17
1.47064e-17
1.47064e-17
1.47064e-17
1.47064e-17
1.47064e-17
1.47064e-17
1.47064e-17
1.47064e-17
1.47064e-17
1.47064e-17
1.47064e-17
1.47064e-17
1.47064e-17
1.47064e-17
1.47064e-17
1.47064e-17
1.47064e-17
1.47064e-17
1.47064e-17
1.47064e-17
1.47064e-17
1.47064e-17
1.47064e-17
1.47064e-17
1.47064e-17
1.47064e-17
1.47064e-17
1.47064e-17
1.47064e-17
1.47064e-17
1.47064e-17
1.47064e-17
1.47064e-17
1.47064e-17
1.47064e-17
1.47064e-17
1.47064e-17
1.47064e-17
1.47064e-17
1.47064e-17
1.47064e-17
1.47064e-17
1.47064e-17
1.47064e-17
1.47064e-17
1.47064e-17
1.47064e-17
1.47064e-17
1.47064e-17
1.47064e-17
1.47064e-17
1.47064e-17
1.47064e-17
1.47064e-17
1.47064e-17
1.47064e-17
1.47064e-17
1.47064e-17
1.47064e-17
1.47064e-17
1.47064e-17
1.47064e-17
1.47064e-17
1.47064e-17
1.47064e-17
1.47064e-17
1.47064e-17
1.47064e-17
1.47064e-17
1.47064e-17
1.47064e-17
1.47064e-17
1.47064e-17
1.47064e-17
1.47064e-17
1.47064e-17
1.47064e-17
1.47064e-17
1.47064e-17
1.47064e-17
1.47064e-17
1.47064e-17
1.47064e-17
1.47064e-17
1.47064e-17
1.47064e-17
1.47064e-17
1.47064e-17
1.47064e-17
1.47064e-17
1.47064e-17
1.47064e-17
1.47064e-17
1.47064e-17
1.47064e-17
1.47064e-17
1.47064e-17
1.47064e-17
1.47064e-17
1.47064e-17
1.47064e-17
1.47064e-17
1.47064e-17
1.47064e-17
1.47064e-17
1.47064e-17
1.47064e-17
1.47064e-17
1.47064e-17
1.47064e-17
1.47064e-17
1.47064e-17
1.47064e-17
1.47064e-17
1.47064e-17
1.47064e-17
1.47064e-17
1.47064e-17
1.47064e-17
1.470640001e-17
1.470640003e-17
1.470640012e-17
1.47064005e-17
1.470640205e-17
1.470640795e-17
1.470642861e-17
1.470649447e-17
1.470668298e-17
1.470715734e-17
1.470816141e-17
1.470973783e-17
1.471013705e-17
1.471028525e-17
1.471043956e-17
1.47106003e-17
1.471076767e-17
1.471094194e-17
1.471112337e-17
1.471131226e-17
1.471150894e-17
1.471171373e-17
1.471192701e-17
1.471214912e-17
1.471238046e-17
1.471262141e-17
1.471287241e-17
1.471313388e-17
1.471340629e-17
1.471369011e-17
1.471398584e-17
1.471429401e-17
1.471461516e-17
1.471494988e-17
1.471529876e-17
1.471566243e-17
1.471604156e-17
1.471643684e-17
1.471684899e-17
1.471727879e-17
1.471772702e-17
1.471819453e-17
1.47186822e-17
1.471919095e-17
1.471972176e-17
1.472027564e-17
1.472085367e-17
1.472145697e-17
1.472208673e-17
1.47227442e-17
1.472343068e-17
1.472414757e-17
1.472489631e-17
1.472567843e-17
1.472649555e-17
1.472734938e-17
1.472824169e-17
1.47291744e-17
1.473014949e-17
1.473116908e-17
1.47322354e-17
1.47333508e-17
1.473451777e-17
1.473573894e-17
1.473701711e-17
1.473835521e-17
1.473975638e-17
1.474122392e-17
1.474276134e-17
1.474437235e-17
1.47460609e-17
1.474783117e-17
1.474968761e-17
1.475163492e-17
1.475367812e-17
1.475582252e-17
1.47580738e-17
1.476043795e-17
1.476292139e-17
1.476553091e-17
1.476827377e-17
1.477115768e-17
1.477419086e-17
1.477738204e-17
1.478074056e-17
1.478427633e-17
1.478799996e-17
1.479192271e-17
1.479605661e-17
1.480041448e-17
1.480501e-17
1.480985773e-17
1.481497323e-17
1.482037306e-17
1.482607491e-17
1.483209763e-17
1.483846132e-17
1.484518742e-17
1.485229877e-17
1.485981974e-17
1.48677763e-17
1.487619614e-17
1.488510874e-17
1.489454555e-17
1.490454002e-17
1.491512782e-17
1.49263469e-17
1.493823767e-17
1.495084312e-17
1.496420898e-17
1.49783839e-17
1.499341957e-17
1.500937097e-17
1.502629644e-17
1.504425799e-17
1.506332142e-17
1.508355652e-17
1.510503734e-17
1.512784237e-17
1.515205477e-17
1.517776261e-17
1.520505913e-17
1.523404294e-17
1.526481837e-17
1.529749564e-17
1.533219119e-17
1.536902795e-17
1.540813562e-17
1.544965095e-17
1.549371809e-17
1.554048883e-17
1.559012295e-17
1.564278852e-17
1.569866223e-17
1.575792968e-17
1.582078575e-17
1.588743487e-17
1.595809141e-17
1.603297993e-17
1.611233556e-17
1.61964043e-17
1.628544336e-17
1.637972144e-17
1.647951905e-17
1.658512882e-17
1.669685582e-17
1.681501777e-17
1.693994541e-17
1.707198266e-17
1.721148697e-17
1.735882946e-17
1.751439519e-17
1.767858337e-17
1.785180749e-17
1.80344955e-17
1.822708994e-17
1.843004808e-17
1.864384194e-17
1.886895841e-17
1.910589921e-17
1.935518094e-17
1.961733503e-17
1.989290763e-17
2.018245957e-17
2.048656614e-17
2.080581697e-17
2.114081578e-17
2.149218012e-17
2.186054109e-17
2.224654297e-17
2.265084284e-17
2.307411018e-17
2.351702634e-17
2.39802841e-17
2.446458704e-17
2.497064896e-17
2.549919324e-17
2.605095215e-17
2.66266661e-17
2.722708287e-17
2.785295677e-17
2.850504783e-17
2.918412085e-17
2.989094448e-17
3.062629025e-17
3.139093158e-17
3.21856427e-17
3.301119761e-17
3.386836899e-17
3.475792705e-17
3.568063841e-17
3.663726494e-17
3.762856256e-17
3.865528007e-17
3.971815797e-17
4.08179272e-17
4.195530801e-17
4.313100868e-17
4.434572442e-17
4.560013611e-17
4.689490915e-17
4.823069236e-17
4.960811682e-17
5.102779477e-17
5.24903186e-17
5.39962598e-17
5.554616798e-17
5.714056998e-17
5.877996899e-17
6.04648437e-17
6.219564761e-17
6.397280832e-17
6.579672694e-17
6.766777753e-17
6.95863067e-17
7.155263323e-17
7.356704778e-17
7.562981278e-17
7.774116231e-17
7.990130217e-17
8.211041003e-17
8.436863565e-17
8.667610133e-17
8.903290236e-17
9.14391077e-17
9.389476069e-17
9.639988e-17
9.895446065e-17
1.015584752e-16
1.04211875e-16
1.069145918e-16
1.096665394e-16
1.124676152e-16
1.153177025e-16
1.182166723e-16
1.211643859e-16
1.24160697e-16
1.272054548e-16
1.302985063e-16
1.334396998e-16
1.366288879e-16
1.398659307e-16
1.431506998e-16
1.464830817e-16
1.498629821e-16
1.5329033e-16
1.567650821e-16
1.602872274e-16
1.638567924e-16
1.674738456e-16
1.711385035e-16
1.748509359e-16
1.786113716e-16
1.824201047e-16
1.862775008e-16
1.901840036e-16
1.941401421e-16
1.981465371e-16
2.022039091e-16
2.063130861e-16
2.10475011e-16
2.146907506e-16
2.189615037e-16
2.232886101e-16
2.276735599e-16
2.32118003e-16
2.366237588e-16
2.411928265e-16
2.458273957e-16
2.505298569e-16
2.55302813e-16
2.601490906e-16
2.650717523e-16
2.700741085e-16
2.751597309e-16
2.803324643e-16
2.85596443e-16
2.909561021e-16
2.964161908e-16
3.019817883e-16
3.07658319e-16
3.134515682e-16
3.193676979e-16
3.254132631e-16
3.315952285e-16
3.379209852e-16
3.443983681e-16
3.510356733e-16
3.578416758e-16
3.648256486e-16
3.7199738e-16
3.793671945e-16
3.869459729e-16
3.947451729e-16
4.0277685e-16
4.11053681e-16
4.195889863e-16
4.283967499e-16
4.374916441e-16
4.468890541e-16
4.566051032e-16
4.666566787e-16
4.770614585e-16
4.878379385e-16
4.990054615e-16
5.105842462e-16
5.225954186e-16
5.350610432e-16
5.480041569e-16
5.614488029e-16
5.754200675e-16
5.899441174e-16
6.050482395e-16
6.207608819e-16
6.371116979e-16
6.541315911e-16
6.718527639e-16
6.903087679e-16
7.095345572e-16
7.295665448e-16
7.504426622e-16
7.722024226e-16
7.948869875e-16
8.185392375e-16
8.43203848e-16
8.689273691e-16
8.957583111e-16
9.237472356e-16
9.529468532e-16
9.834121284e-16
1.015200392e-15
1.048371464e-15
1.082987785e-15
1.119114559e-15
1.156819914e-15
1.196175075e-15
1.237254562e-15
1.280136402e-15
1.324902382e-15
1.371638331e-15
1.420434446e-15
1.47138568e-15
1.524592196e-15
1.580159908e-15
1.638201143e-15
1.698835447e-15
1.762190574e-15
1.82840372e-15
1.897623073e-15
1.970009753e-15
2.045740288e-15
2.125009753e-15
2.208035789e-15
2.295063757e-15
2.386373368e-15
2.482287221e-15
2.583181837e-15
2.689501923e-15
2.801778833e-15
2.920654501e-15
3.046912469e-15
3.181518157e-15
3.325671133e-15
3.480873007e-15
3.649015614e-15
3.832495611e-15
4.034363392e-15
4.25851664e-15
4.509951911e-15
4.795091677e-15
5.122209458e-15
5.501982502e-15
5.948210255e-15
6.478748369e-15
7.116722865e-15
7.892108467e-15
8.843780241e-15
1.002218039e-14
1.149278445e-14
1.334060637e-14
1.567605337e-14
1.864253468e-14
2.242634878e-14
2.726953047e-14
3.348654268e-14
4.148596147e-14
5.179864552e-14
6.511432528e-14
8.232912297e-14
1.046072619e-13
1.334611905e-13
1.708556026e-13
2.193424568e-13
2.822362049e-13
3.63841157e-13
4.697464347e-13
6.072085112e-13
7.856472185e-13
1.017288689e-12
1.317998489e-12
1.708360814e-12
2.215075866e-12
2.872768399e-12
3.726327275e-12
4.833930229e-12
6.270952145e-12
8.135011387e-12
1.055248059e-11
1.368687963e-11
1.774968459e-11
2.301423318e-11
2.983359231e-11
3.866348627e-11
5.009167484e-11
6.487553359e-11
8.399003727e-11
1.086889e-10
1.405823014e-10
1.81735445e-10
2.347931785e-10
3.031370714e-10
3.910827077e-10
5.041265323e-10
6.492533675e-10
8.35317694e-10
1.073513912e-09
1.377952998e-09
1.766365146e-09
2.260949944e-09
2.889397243e-09
3.686102786e-09
4.69360267e-09
5.96424943e-09
7.56214968e-09
9.565378539e-09
1.206847937e-08
1.518524857e-08
1.905179463e-08
2.382984863e-08
2.971029089e-08
3.6916846e-08
4.570988792e-08
5.639028853e-08
6.930323836e-08
8.484196791e-08
1.034513014e-07
1.256309828e-07
1.51938724e-07
1.829929439e-07
2.194751869e-07
2.621322471e-07
3.117780967e-07
3.692957599e-07
4.356395289e-07
5.118381525e-07
5.990003382e-07
6.983251966e-07
8.111226097e-07
9.388520197e-07
1.083128877e-06
1.246131182e-06
1.429827628e-06
1.638056201e-06
1.872263981e-06
2.129085146e-06
2.383538719e-06
2.593918061e-06
2.674839357e-06
2.519521502e-06
2.079354618e-06
1.459909719e-06
8.784212736e-07
4.757952335e-07
2.458115042e-07
1.263886983e-07
6.605048452e-08
3.480795476e-08
1.903869344e-08
1.070971129e-08
6.202045094e-09
3.655309086e-09
2.220618784e-09
1.375525596e-09
8.66517468e-10
5.515680688e-10
3.572288893e-10
2.339047909e-10
1.544704534e-10
1.026130506e-10
6.838447481e-11
4.562094266e-11
3.029614474e-11
2.013977515e-11
1.331905512e-11
8.807146433e-12
5.813526127e-12
3.833520536e-12
2.527761323e-12
1.669677419e-12
1.09820478e-12
7.196379365e-13
4.719418262e-13
3.098816094e-13
2.037343726e-13
1.341174014e-13
8.839932359e-14
5.831293266e-14
3.845830108e-14
2.535749496e-14
1.69380064e-14
1.135047617e-14
7.56657358e-15
5.058792471e-15
3.392211236e-15
2.281114771e-15
1.537968352e-15
1.039395755e-15
7.045314264e-16
4.783273859e-16
3.254182454e-16
2.218254893e-16
1.514950199e-16
1.036497202e-16
7.103721206e-17
4.876583333e-17
3.352894108e-17
2.308657041e-17
1.591820022e-17
1.098960077e-17
7.595929838e-18
5.255914382e-18
3.640332792e-18
2.523578576e-18
1.750788093e-18
1.215487165e-18
8.443596838e-19
5.868494439e-19
4.080482499e-19
2.83822891e-19
1.974703978e-19
1.374184934e-19
9.564215682e-20
6.657168835e-20
4.63386789e-20
3.225465467e-20
2.24501775e-20
1.562475171e-20
1.087335006e-20
7.565982616e-21
5.264026552e-21
3.662057874e-21
2.547389872e-21
1.771915308e-21
1.23250372e-21
8.573507029e-22
5.964700511e-22
4.150706231e-22
2.889424531e-22
2.012426139e-22
1.402563476e-22
9.783774305e-23
6.832389762e-23
4.777896051e-23
3.346797613e-23
2.34907777e-23
1.652732625e-23
1.16606284e-23
8.253641526e-24
5.86373562e-24
4.183272666e-24
2.998341516e-24
2.160108799e-24
1.564933221e-24
1.140564933e-24
8.365687624e-25
6.176784925e-25
4.591845637e-25
3.437321802e-25
2.590975948e-25
1.966427854e-25
1.502406694e-25
1.155267631e-25
8.937741662e-26
6.954540231e-26
5.440487468e-26
4.277243593e-26
3.378123188e-26
2.679206409e-26
2.133039408e-26
1.70415038e-26
1.365842557e-26
1.097888324e-26
8.848617493e-27
7.149253893e-27
5.789419109e-27
4.698192324e-27
3.820245015e-27
3.112209085e-27
2.539944429e-27
2.076469525e-27
1.700384103e-27
1.394659541e-27
1.145705917e-27
9.426485763e-28
7.767643845e-28
6.410404197e-28
5.298270761e-28
4.385643579e-28
3.635651848e-28
3.018433054e-28
2.509762553e-28
2.089959478e-28
1.743011261e-28
1.4558716e-28
1.217896448e-28
1.020390071e-28
8.562390888e-29
7.196169933e-29
6.057452162e-29
5.106996537e-29
4.312537908e-29
3.647513346e-29
3.090026764e-29
2.622006199e-29
2.228517076e-29
1.89720191e-29
1.617822631e-29
1.381886291e-29
1.182338611e-29
1.013312771e-29
8.6992326e-30
7.480964878e-30
6.444314619e-30
5.560850462e-30
4.806773604e-30
4.162136932e-30
3.61019972e-30
3.136893718e-30
2.730380913e-30
2.380686766e-30
2.079395706e-30
1.819398009e-30
1.594679141e-30
1.400144235e-30
1.231471671e-30
1.084990785e-30
9.575796107e-31
8.465792738e-31
7.497222327e-31
6.650720629e-31
5.909728615e-31
5.26006687e-31
4.689577127e-31
4.187820009e-31
3.745819825e-31
3.355848866e-31
3.011244838e-31
2.706256181e-31
2.435910826e-31
2.195904731e-31
1.982507082e-31
1.792479574e-31
1.623007604e-31
1.471641533e-31
1.336246496e-31
1.214959461e-31
1.106152435e-31
1.008400915e-31
9.204567924e-32
8.412250574e-32
7.697437477e-32
7.051666674e-32
6.467484756e-32
5.938318055e-32
5.458361231e-32
5.0224808e-32
4.626131493e-32
4.265283668e-32
3.93636022e-32
3.6361817e-32
3.361918513e-32
3.111049234e-32
2.881324214e-32
2.670733773e-32
2.47748037e-32
2.299954222e-32
2.136711922e-32
1.986457666e-32
1.848026751e-32
1.720371059e-32
1.60254626e-32
1.493700535e-32
1.393064619e-32
1.299942992e-32
1.213706096e-32
1.133783435e-32
1.059657456e-32
9.908581194e-33
9.269580724e-33
8.675683578e-33
8.123345888e-33
7.609335417e-33
7.130701135e-33
6.684746045e-33
6.269002882e-33
5.881212352e-33
5.519303628e-33
5.181376862e-33
4.865687469e-33
4.570632008e-33
4.294735467e-33
4.036639814e-33
3.795093673e-33
3.568943006e-33
3.357122688e-33
3.158648896e-33
2.972612208e-33
2.798171359e-33
2.634547572e-33
2.48101941e-33
2.336918097e-33
2.201623267e-33
2.074559086e-33
1.955190724e-33
1.843021131e-33
1.737588096e-33
1.638461563e-33
1.545241165e-33
1.457553982e-33
1.375052472e-33
1.297412584e-33
1.224332021e-33
1.155528647e-33
1.090739021e-33
1.029717049e-33
9.722327433e-34
9.180710771e-34
8.670309338e-34
8.189241309e-34
7.735745236e-34
7.308171736e-34
6.904975821e-34
6.524709795e-34
6.166016686e-34
5.827624141e-34
5.508338797e-34
5.207041028e-34
4.922680096e-34
4.654269625e-34
4.400883419e-34
4.161651556e-34
3.935756763e-34
3.722431042e-34
3.520952524e-34
3.330642544e-34
3.150862915e-34
2.981013379e-34
2.820529235e-34
2.668879127e-34
2.525562977e-34
2.390110053e-34
2.262077162e-34
2.141046965e-34
2.026626402e-34
1.918445216e-34
1.816154568e-34
1.719425753e-34
1.627948983e-34
1.541432262e-34
1.459600311e-34
1.382193588e-34
1.308967342e-34
1.239690749e-34
1.174146082e-34
1.112127946e-34
1.053442556e-34
9.979070568e-35
9.453488845e-35
8.956051703e-35
8.48522178e-35
8.039547755e-35
7.617659386e-35
7.218262847e-35
6.840136329e-35
6.482125917e-35
6.143141728e-35
5.822154232e-35
5.518190838e-35
5.230332651e-35
4.957711423e-35
4.699506702e-35
4.454943126e-35
4.223287884e-35
4.003848319e-35
3.795969677e-35
3.599032986e-35
3.412453052e-35
3.235676575e-35
3.068180366e-35
2.909469675e-35
2.759076606e-35
2.616558637e-35
2.481497205e-35
2.353496388e-35
2.232181651e-35
2.117198667e-35
2.008212204e-35
1.904905078e-35
1.80697716e-35
1.714144443e-35
1.626138153e-35
1.542703926e-35
1.463601014e-35
1.388601547e-35
1.317489823e-35
1.250061659e-35
1.186123755e-35
1.125493109e-35
1.067996456e-35
1.013469742e-35
9.617576245e-36
9.127130059e-36
8.66196585e-36
8.220764372e-36
7.802276202e-36
7.405317938e-36
7.028768713e-36
6.671566781e-36
6.332706386e-36
6.011234765e-36
5.706249285e-36
5.416894793e-36
5.142361073e-36
4.881880443e-36
4.634725495e-36
4.40020694e-36
4.177671595e-36
3.966500463e-36
3.766106922e-36
3.575934995e-36
3.395457735e-36
3.224175684e-36
3.061615426e-36
2.907328203e-36
2.760888621e-36
2.621893418e-36
2.489960281e-36
2.364726764e-36
2.245849233e-36
2.133001882e-36
2.025875782e-36
1.92417802e-36
1.827630833e-36
1.735970832e-36
1.648948239e-36
1.566326183e-36
1.487880019e-36
1.413396689e-36
1.342674125e-36
1.275520669e-36
1.211754528e-36
1.151203267e-36
1.093703314e-36
1.039099509e-36
9.872446584e-37
9.379991307e-37
8.912304489e-37
8.468129279e-37
8.046273278e-37
7.645605134e-37
7.265051374e-37
6.90359345e-37
6.560264892e-37
6.234148606e-37
5.92437429e-37
5.630116097e-37
5.35059027e-37
5.085053044e-37
4.832798522e-37
4.593156745e-37
4.365491852e-37
4.149200344e-37
3.943709385e-37
3.748475257e-37
3.562981844e-37
3.38673925e-37
3.219282401e-37
3.060169827e-37
2.908982423e-37
2.76532231e-37
2.628811772e-37
2.499092203e-37
2.375823101e-37
2.258681219e-37
2.147359624e-37
2.041566903e-37
1.941026334e-37
1.845475166e-37
1.754663888e-37
1.668355584e-37
1.586325279e-37
1.508359318e-37
1.434254782e-37
1.363818994e-37
1.296868953e-37
1.233230863e-37
1.172739659e-37
1.115238569e-37
1.060578682e-37
1.008618571e-37
9.592238946e-38
9.12267048e-38
8.676268278e-38
8.251881039e-38
7.848414923e-38
7.464831108e-38
7.100142528e-38
6.753411589e-38
6.423747537e-38
6.110304146e-38
5.812277466e-38
5.528903662e-38
5.259456987e-38
5.003247952e-38
4.759621443e-38
4.527954975e-38
4.307657128e-38
4.098165926e-38
3.898947333e-38
3.709493926e-38
3.529323502e-38
3.357977861e-38
3.195021574e-38
3.040040798e-38
2.892642348e-38
2.752452483e-38
2.619116034e-38
2.492295458e-38
2.371669952e-38
2.256934617e-38
2.147799649e-38
2.043989598e-38
1.945242667e-38
1.851310027e-38
1.761955164e-38
1.67695327e-38
1.596090632e-38
1.519164093e-38
1.445980526e-38
1.376356378e-38
1.310117139e-38
1.247096907e-38
1.187137981e-38
1.13009043e-38
1.075811722e-38
1.024166327e-38
9.750254013e-39
9.282664355e-39
8.837729692e-39
8.414342674e-39
8.01145028e-39
7.628051346e-39
7.263193967e-39
6.915972831e-39
6.585527248e-39
6.27103862e-39
5.971728576e-39
5.686856854e-39
5.41571945e-39
5.157646854e-39
4.912002379e-39
4.678180393e-39
4.45560516e-39
4.243728827e-39
4.042030265e-39
3.850013864e-39
3.667208162e-39
3.493164653e-39
3.327456775e-39
3.169678635e-39
3.01944413e-39
2.876385851e-39
2.740154261e-39
2.610416732e-39
2.486856745e-39
2.369173121e-39
2.257079266e-39
2.150302404e-39
2.048582928e-39
1.95167369e-39
1.859339448e-39
1.77135624e-39
1.687510923e-39
1.607600583e-39
1.531432014e-39
1.458821368e-39
1.389593687e-39
1.323582507e-39
1.260629546e-39
1.200584511e-39
1.143304935e-39
1.088656085e-39
1.036511119e-39
9.867515937e-40
9.392682416e-40
8.939624375e-40
8.507485905e-40
8.095579548e-40
7.703447516e-40
7.330955889e-40
6.978439974e-40
6.646929938e-40
4.136742017e-40
2.18698572e-40
1.171986128e-40
6.397437278e-41
3.568415437e-41
2.040465252e-41
1.199109561e-41
7.250391696e-42
4.508189871e-42
2.87644833e-42
1.877149468e-42
1.248137457e-42
8.423108286e-43
5.749216628e-43
3.957280633e-43
2.740341613e-43
1.905629813e-43
1.328985801e-43
9.285717515e-44
6.495606294e-44
4.546995915e-44
3.183777665e-44
2.229436003e-44
1.561245611e-44
1.09306496e-44
7.652052133e-45
5.355604724e-45
3.747719184e-45
2.62230597e-45
1.834769009e-45
1.283745451e-45
8.987946566e-46
6.295023516e-46
4.412768656e-46
3.102239385e-46
2.186232041e-46
1.546276095e-46
1.101336708e-46
7.921565184e-47
5.759940075e-47
4.317765413e-47
3.301437199e-47
2.653675111e-47
2.247606785e-47
1.978863823e-47
1.76571881e-47
1.622832563e-47
1.739307412e-47
1.610942746e-47
1.730243807e-47
1.875601984e-47
2.031320885e-47
2.044580613e-47
2.180913508e-47
2.387863574e-47
2.744405637e-47
2.943651244e-47
3.090384898e-47
3.315511329e-47
3.403553997e-47
3.706776226e-47
3.852182873e-47
4.145544823e-47
4.354303417e-47
4.595880195e-47
4.817406176e-47
5.071497437e-47
5.305180784e-47
5.52053625e-47
5.742113987e-47
5.908363501e-47
6.143209803e-47
6.34904052e-47
6.513287215e-47
6.750289237e-47
6.862384228e-47
6.973864702e-47
7.146704795e-47
7.221919409e-47
7.311390144e-47
7.375236422e-47
7.440109893e-47
7.565024906e-47
7.70272143e-47
7.716872941e-47
7.735429402e-47
7.788776461e-47
7.826549841e-47
7.866120657e-47
7.90535264e-47
7.933364894e-47
7.942358245e-47
7.955235768e-47
7.962578156e-47
7.981790447e-47
7.987920197e-47
7.994531651e-47
8.00321446e-47
8.007209337e-47
8.011140128e-47
8.012530094e-47
8.015586775e-47
8.01716425e-47
8.017608174e-47
8.017716791e-47
8.016575161e-47
8.017155793e-47
8.017775995e-47
8.017085284e-47
8.014345024e-47
8.016316298e-47
8.014988485e-47
8.014274464e-47
8.013991597e-47
8.013429071e-47
8.01353807e-47
8.013305381e-47
8.012543337e-47
8.012519158e-47
8.01203709e-47
8.010859295e-47
8.010835786e-47
8.01140344e-47
8.009460016e-47
8.009902352e-47
8.008614461e-47
8.009588059e-47
8.008457723e-47
8.009324409e-47
8.00883279e-47
8.008011717e-47
8.008382741e-47
8.006907848e-47
8.007289263e-47
8.010198769e-47
8.009169646e-47
8.008470481e-47
8.009429385e-47
8.010705616e-47
8.006431258e-47
8.006385569e-47
8.0056597e-47
8.008928802e-47
8.005343044e-47
8.006918304e-47
8.007698801e-47
8.005815082e-47
8.006666509e-47
8.006235349e-47
8.005776444e-47
8.006587512e-47
8.005699575e-47
8.006877822e-47
8.005539948e-47
8.005418013e-47
8.00716224e-47
8.004177106e-47
8.007972785e-47
8.00536315e-47
8.006054708e-47
8.008088856e-47
8.004804741e-47
8.003762993e-47
8.005377521e-47
8.006802812e-47
8.005043938e-47
8.003307586e-47
8.003130364e-47
8.004103486e-47
8.003793813e-47
8.004213317e-47
8.003405482e-47
8.001899576e-47
8.003536371e-47
8.004186464e-47
8.004969457e-47
8.005778247e-47
8.005176009e-47
8.004153843e-47
8.005765462e-47
8.005976274e-47
8.006681321e-47
8.005211811e-47
8.005315372e-47
8.004217974e-47
8.003869742e-47
8.003371135e-47
8.004150186e-47
8.005113335e-47
8.003374215e-47
8.003470575e-47
8.005093886e-47
8.003122181e-47
8.005319366e-47
8.005268787e-47
8.003487811e-47
8.006717446e-47
8.00497357e-47
8.005183685e-47
8.00276162e-47
8.00238305e-47
8.002762207e-47
8.004344363e-47
8.003586059e-47
8.003642266e-47
8.004361745e-47
8.004805717e-47
8.003755226e-47
8.002306983e-47
8.004915297e-47
8.002862261e-47
8.004093935e-47
8.003517346e-47
8.00357895e-47
8.003683295e-47
8.003773288e-47
8.003831872e-47
8.005050601e-47
8.003448758e-47
8.00364972e-47
8.003486594e-47
8.004610375e-47
8.003645056e-47
8.004121066e-47
8.004225931e-47
8.00338431e-47
8.00253483e-47
8.004155863e-47
8.0037883e-47
8.003523944e-47
8.004269183e-47
8.004259878e-47
8.001779582e-47
8.002992679e-47
8.002418089e-47
8.004262729e-47
8.00451536e-47
8.003571783e-47
8.003172879e-47
8.001358291e-47
8.003208183e-47
8.001318549e-47
8.001109055e-47
8.00267069e-47
8.001452294e-47
8.000581517e-47
8.001927855e-47
8.004504736e-47
8.002949386e-47
8.000846566e-47
)
;

boundaryField
{
    inlet
    {
        type            fixedValue;
        value           uniform 0;
    }
    outlet
    {
        type            zeroGradient;
    }
    wall
    {
        type            empty;
    }
}


// ************************************************************************* //
