/*--------------------------------*- C++ -*----------------------------------*\
  =========                 |
  \\      /  F ield         | OpenFOAM: The Open Source CFD Toolbox
   \\    /   O peration     | Website:  https://openfoam.org
    \\  /    A nd           | Version:  7
     \\/     M anipulation  |
\*---------------------------------------------------------------------------*/
FoamFile
{
    version     2.0;
    format      ascii;
    class       volScalarField;
    location    "0.000558243009";
    object      C2H5CHO;
}
// * * * * * * * * * * * * * * * * * * * * * * * * * * * * * * * * * * * * * //

dimensions      [0 0 0 0 0 0 0];

internalField   nonuniform List<scalar> 
1500
(
5.232043025e-16
2.038799035e-15
4.196138765e-15
6.272961474e-15
7.801381342e-15
8.721094439e-15
9.191513722e-15
9.401025099e-15
9.483662672e-15
9.512916503e-15
9.522314732e-15
9.525080755e-15
9.525832533e-15
9.526022516e-15
9.526067418e-15
9.526077395e-15
9.526079488e-15
9.526079904e-15
9.526079983e-15
9.526079997e-15
9.526079999e-15
9.52608e-15
9.52608e-15
9.52608e-15
9.52608e-15
9.52608e-15
9.52608e-15
9.52608e-15
9.52608e-15
9.52608e-15
9.52608e-15
9.52608e-15
9.52608e-15
9.52608e-15
9.52608e-15
9.52608e-15
9.52608e-15
9.52608e-15
9.52608e-15
9.52608e-15
9.52608e-15
9.52608e-15
9.52608e-15
9.52608e-15
9.52608e-15
9.52608e-15
9.52608e-15
9.52608e-15
9.52608e-15
9.52608e-15
9.52608e-15
9.52608e-15
9.52608e-15
9.52608e-15
9.52608e-15
9.52608e-15
9.52608e-15
9.52608e-15
9.52608e-15
9.52608e-15
9.52608e-15
9.52608e-15
9.52608e-15
9.52608e-15
9.52608e-15
9.52608e-15
9.52608e-15
9.52608e-15
9.52608e-15
9.52608e-15
9.52608e-15
9.52608e-15
9.52608e-15
9.52608e-15
9.52608e-15
9.52608e-15
9.52608e-15
9.52608e-15
9.52608e-15
9.52608e-15
9.52608e-15
9.52608e-15
9.52608e-15
9.52608e-15
9.52608e-15
9.52608e-15
9.52608e-15
9.52608e-15
9.52608e-15
9.52608e-15
9.52608e-15
9.52608e-15
9.52608e-15
9.52608e-15
9.52608e-15
9.52608e-15
9.52608e-15
9.52608e-15
9.52608e-15
9.52608e-15
9.52608e-15
9.52608e-15
9.52608e-15
9.52608e-15
9.52608e-15
9.52608e-15
9.52608e-15
9.52608e-15
9.52608e-15
9.52608e-15
9.52608e-15
9.52608e-15
9.52608e-15
9.52608e-15
9.52608e-15
9.52608e-15
9.52608e-15
9.52608e-15
9.52608e-15
9.52608e-15
9.52608e-15
9.52608e-15
9.52608e-15
9.52608e-15
9.52608e-15
9.52608e-15
9.52608e-15
9.52608e-15
9.52608e-15
9.52608e-15
9.52608e-15
9.52608e-15
9.52608e-15
9.52608e-15
9.52608e-15
9.52608e-15
9.52608e-15
9.52608e-15
9.52608e-15
9.52608e-15
9.52608e-15
9.52608e-15
9.52608e-15
9.52608e-15
9.52608e-15
9.52608e-15
9.52608e-15
9.52608e-15
9.52608e-15
9.52608e-15
9.52608e-15
9.52608e-15
9.52608e-15
9.52608e-15
9.52608e-15
9.52608e-15
9.52608e-15
9.52608e-15
9.52608e-15
9.52608e-15
9.52608e-15
9.52608e-15
9.52608e-15
9.52608e-15
9.52608e-15
9.52608e-15
9.52608e-15
9.52608e-15
9.52608e-15
9.52608e-15
9.52608e-15
9.52608e-15
9.52608e-15
9.52608e-15
9.52608e-15
9.52608e-15
9.52608e-15
9.52608e-15
9.52608e-15
9.52608e-15
9.52608e-15
9.52608e-15
9.52608e-15
9.52608e-15
9.52608e-15
9.52608e-15
9.52608e-15
9.52608e-15
9.52608e-15
9.52608e-15
9.52608e-15
9.52608e-15
9.52608e-15
9.52608e-15
9.52608e-15
9.52608e-15
9.52608e-15
9.52608e-15
9.52608e-15
9.52608e-15
9.52608e-15
9.52608e-15
9.52608e-15
9.52608e-15
9.52608e-15
9.52608e-15
9.52608e-15
9.52608e-15
9.52608e-15
9.52608e-15
9.52608e-15
9.52608e-15
9.52608e-15
9.52608e-15
9.52608e-15
9.52608e-15
9.52608e-15
9.52608e-15
9.52608e-15
9.52608e-15
9.52608e-15
9.52608e-15
9.52608e-15
9.52608e-15
9.52608e-15
9.52608e-15
9.52608e-15
9.52608e-15
9.52608e-15
9.52608e-15
9.52608e-15
9.52608e-15
9.52608e-15
9.52608e-15
9.52608e-15
9.52608e-15
9.526080001e-15
9.526080004e-15
9.526080013e-15
9.526080052e-15
9.526080211e-15
9.526080838e-15
9.526083143e-15
9.526091016e-15
9.52611579e-15
9.526187042e-15
9.52637215e-15
9.526797873e-15
9.527629335e-15
9.528857119e-15
9.529208819e-15
9.529328041e-15
9.529452017e-15
9.529580995e-15
9.529715156e-15
9.529854682e-15
9.529999781e-15
9.530150682e-15
9.530307631e-15
9.530470888e-15
9.530640722e-15
9.530817418e-15
9.531001269e-15
9.531192585e-15
9.531391687e-15
9.531598914e-15
9.531814621e-15
9.532039177e-15
9.532272974e-15
9.532516419e-15
9.53276994e-15
9.533033987e-15
9.533309032e-15
9.53359557e-15
9.533894122e-15
9.534205234e-15
9.534529481e-15
9.534867467e-15
9.535219828e-15
9.535587233e-15
9.535970384e-15
9.536370024e-15
9.536786934e-15
9.537221934e-15
9.537675894e-15
9.538149727e-15
9.538644398e-15
9.539160925e-15
9.539700382e-15
9.540263905e-15
9.540852692e-15
9.541468012e-15
9.542111203e-15
9.542783683e-15
9.543486952e-15
9.544222596e-15
9.544992295e-15
9.545797828e-15
9.54664108e-15
9.547524048e-15
9.548448851e-15
9.549417732e-15
9.550433074e-15
9.551497401e-15
9.552613396e-15
9.553783903e-15
9.555011943e-15
9.556300724e-15
9.557653652e-15
9.559074345e-15
9.560566649e-15
9.562134646e-15
9.563782679e-15
9.565515361e-15
9.567337594e-15
9.56925459e-15
9.57127189e-15
9.573395382e-15
9.575631327e-15
9.57798638e-15
9.580467616e-15
9.583082555e-15
9.58583919e-15
9.588746015e-15
9.591812061e-15
9.59504692e-15
9.598460785e-15
9.602064487e-15
9.605869525e-15
9.609888117e-15
9.61413323e-15
9.618618634e-15
9.623358941e-15
9.628369655e-15
9.633667225e-15
9.639269094e-15
9.645193755e-15
9.651460811e-15
9.658091031e-15
9.665106415e-15
9.67253026e-15
9.680387224e-15
9.688703401e-15
9.697506391e-15
9.706825375e-15
9.716691197e-15
9.727136442e-15
9.738195524e-15
9.749904768e-15
9.762302502e-15
9.77542915e-15
9.789327324e-15
9.804041928e-15
9.819620249e-15
9.836112067e-15
9.853569759e-15
9.872048403e-15
9.891605891e-15
9.912303041e-15
9.934203709e-15
9.957374907e-15
9.981886917e-15
1.000781342e-14
1.003523159e-14
1.006422226e-14
1.009487e-14
1.012726327e-14
1.016149451e-14
1.019766032e-14
1.023586153e-14
1.027620332e-14
1.031879541e-14
1.036375208e-14
1.041119239e-14
1.046124022e-14
1.051402442e-14
1.056967893e-14
1.062834285e-14
1.069016059e-14
1.075528194e-14
1.082386219e-14
1.089606218e-14
1.097204844e-14
1.105199325e-14
1.113607466e-14
1.122447667e-14
1.131738916e-14
1.141500803e-14
1.151753523e-14
1.162517874e-14
1.173815266e-14
1.185667718e-14
1.198097859e-14
1.211128929e-14
1.224784775e-14
1.23908985e-14
1.254069206e-14
1.269748489e-14
1.286153935e-14
1.303312355e-14
1.321251134e-14
1.339998213e-14
1.359582078e-14
1.38003175e-14
1.401376763e-14
1.423647151e-14
1.446873431e-14
1.471086578e-14
1.496318008e-14
1.522599552e-14
1.549963434e-14
1.578442245e-14
1.608068912e-14
1.638876673e-14
1.670899045e-14
1.704169795e-14
1.738722902e-14
1.774592529e-14
1.811812982e-14
1.850418679e-14
1.890444109e-14
1.931923792e-14
1.974892246e-14
2.019383941e-14
2.065433259e-14
2.113074456e-14
2.162341616e-14
2.213268612e-14
2.26588906e-14
2.32023628e-14
2.37634325e-14
2.434242566e-14
2.493966398e-14
2.55554645e-14
2.619013916e-14
2.684399444e-14
2.75173309e-14
2.821044286e-14
2.8923618e-14
2.965713698e-14
3.041127316e-14
3.118629219e-14
3.198245178e-14
3.280000138e-14
3.363918195e-14
3.450022566e-14
3.538335577e-14
3.62887864e-14
3.721672237e-14
3.816735912e-14
3.914088263e-14
4.013746935e-14
4.11572862e-14
4.220049064e-14
4.32672307e-14
4.435764515e-14
4.547186362e-14
4.661000687e-14
4.777218699e-14
4.895850781e-14
5.016906518e-14
5.140394746e-14
5.266323597e-14
5.394700557e-14
5.525532523e-14
5.658825872e-14
5.794586532e-14
5.932820067e-14
6.073531757e-14
6.216726696e-14
6.362409892e-14
6.510586373e-14
6.661261307e-14
6.814440119e-14
6.970128628e-14
7.128333182e-14
7.289060805e-14
7.452319355e-14
7.618117685e-14
7.786465816e-14
7.957375119e-14
8.130858503e-14
8.306930615e-14
8.485608049e-14
8.66690956e-14
8.850856293e-14
9.037472023e-14
9.226783393e-14
9.418820178e-14
9.613615547e-14
9.811206339e-14
1.001163335e-13
1.021494164e-13
1.042118082e-13
1.063040539e-13
1.084267506e-13
1.105805508e-13
1.127661663e-13
1.149843712e-13
1.172360063e-13
1.195219824e-13
1.218432849e-13
1.242009772e-13
1.265962054e-13
1.290302024e-13
1.315042925e-13
1.34019896e-13
1.365785337e-13
1.391818322e-13
1.418315282e-13
1.445294745e-13
1.472776444e-13
1.500781383e-13
1.529331876e-13
1.558451631e-13
1.588165785e-13
1.61850097e-13
1.649485374e-13
1.681148809e-13
1.713522777e-13
1.746640538e-13
1.780537178e-13
1.81524968e-13
1.850816995e-13
1.887280118e-13
1.924682156e-13
1.963068415e-13
2.002486469e-13
2.042986241e-13
2.084620098e-13
2.12744293e-13
2.171512248e-13
2.216888272e-13
2.263634035e-13
2.311815487e-13
2.361501581e-13
2.412764384e-13
2.465679184e-13
2.520324616e-13
2.57678277e-13
2.63513932e-13
2.695483648e-13
2.757908981e-13
2.822512524e-13
2.88939561e-13
2.958663846e-13
3.030427272e-13
3.104800526e-13
3.181903016e-13
3.261859099e-13
3.344798272e-13
3.430855371e-13
3.52017078e-13
3.612890653e-13
3.709167144e-13
3.80915866e-13
3.913030118e-13
4.020953227e-13
4.133106783e-13
4.249676989e-13
4.370857796e-13
4.496851273e-13
4.627868005e-13
4.764127531e-13
4.905858819e-13
5.05330079e-13
5.206702906e-13
5.366325819e-13
5.532442107e-13
5.705337104e-13
5.885309858e-13
6.072674226e-13
6.267760153e-13
6.470915167e-13
6.682506143e-13
6.902921395e-13
7.132573186e-13
7.371900733e-13
7.621373848e-13
7.881497357e-13
8.152816493e-13
8.435923492e-13
8.731465705e-13
9.040155572e-13
9.362782959e-13
9.700230402e-13
1.005349201e-12
1.042369692e-12
1.081213846e-12
1.122031043e-12
1.164995222e-12
1.210310516e-12
1.258218262e-12
1.30900576e-12
1.363017192e-12
1.420667264e-12
1.482458233e-12
1.549001181e-12
1.621042583e-12
1.699497513e-12
1.785491127e-12
1.880410513e-12
1.98596948e-12
2.104289545e-12
2.238001145e-12
2.39037015e-12
2.565455985e-12
2.768309268e-12
3.005218835e-12
3.284020494e-12
3.614482911e-12
4.008789898e-12
4.482143164e-12
5.053515582e-12
5.746592529e-12
6.590948203e-12
7.62351549e-12
8.890422542e-12
1.044928742e-11
1.237208488e-11
1.474872766e-11
1.769154006e-11
2.134084565e-11
2.587194598e-11
3.150383562e-11
3.851008446e-11
4.723242466e-11
5.809771206e-11
7.163909747e-11
8.852244828e-11
1.095793169e-10
1.358480707e-10
1.68625192e-10
2.095292493e-10
2.605806482e-10
3.243010247e-10
4.038370813e-10
5.03114819e-10
6.270315517e-10
7.816948519e-10
9.747197494e-10
1.215598184e-09
1.516157988e-09
1.891132716e-09
2.358868521e-09
2.942200313e-09
3.66953667e-09
4.576201809e-09
5.706093515e-09
7.113728681e-09
8.866763274e-09
1.104909156e-08
1.376465058e-08
1.714208058e-08
2.13404207e-08
2.655605152e-08
3.303113303e-08
4.106382676e-08
5.102063442e-08
6.335123161e-08
7.860622099e-08
9.745827401e-08
1.207271684e-07
1.494092576e-07
1.847119203e-07
2.280935271e-07
2.813094215e-07
3.464643289e-07
4.260714813e-07
5.231185622e-07
6.411403369e-07
7.842975359e-07
9.574612154e-07
1.166301438e-06
1.417378726e-06
1.718236379e-06
2.077491422e-06
2.504921777e-06
3.011547136e-06
3.609701156e-06
4.313092827e-06
5.136855325e-06
6.097581214e-06
7.213343507e-06
8.503702811e-06
9.989701409e-06
1.169384585e-05
1.36400802e-05
1.585375271e-05
1.836157994e-05
2.119161084e-05
2.437319793e-05
2.793697941e-05
3.191488068e-05
3.63401457e-05
4.124741634e-05
4.667290005e-05
5.265257309e-05
5.923313709e-05
6.644434709e-05
7.437317569e-05
8.306249159e-05
9.255340526e-05
0.0001026193427
0.000113295542
0.0001243109716
0.0001350890291
0.0001447207263
0.0001522793245
0.0001573878932
0.0001603985697
0.000161909639
0.000162372136
0.0001620295953
0.0001609694742
0.0001592155204
0.0001566888706
0.0001532692297
0.0001487304434
0.0001430036478
0.0001358293735
0.0001270503671
0.0001165104878
0.0001044572468
9.105548893e-05
7.68148091e-05
6.246087498e-05
4.883396169e-05
3.671075452e-05
2.654452911e-05
1.865670422e-05
1.279502716e-05
8.661508731e-06
5.816755461e-06
3.893195942e-06
2.604614782e-06
1.745606829e-06
1.16638439e-06
7.77244625e-07
5.183112944e-07
3.459137897e-07
2.310214943e-07
1.543899477e-07
1.032332373e-07
6.904123066e-08
4.614689903e-08
3.081723119e-08
2.078269977e-08
1.404070429e-08
9.437698544e-09
6.353944366e-09
4.285157379e-09
2.894838729e-09
1.958798136e-09
1.327512716e-09
9.016792507e-10
6.132297816e-10
4.178251684e-10
2.85251686e-10
1.951619788e-10
1.338358011e-10
9.201080144e-11
6.342695731e-11
4.384840245e-11
3.040530326e-11
2.115063758e-11
1.476144215e-11
1.033726426e-11
7.264072852e-12
5.122281096e-12
3.624516772e-12
2.573468758e-12
1.833295882e-12
1.310204454e-12
9.392322866e-13
6.752388406e-13
4.867498481e-13
3.5174223e-13
2.547502935e-13
1.848734907e-13
1.344007331e-13
9.785739875e-14
7.134291488e-14
5.206868277e-14
3.80345699e-14
2.780156825e-14
2.033138695e-14
1.487288731e-14
1.088136627e-14
7.960976336e-15
5.823504782e-15
4.258765056e-15
3.11326192e-15
2.274773311e-15
1.66117836e-15
1.212342527e-15
8.841766215e-16
6.44361008e-16
4.692143678e-16
3.413844282e-16
2.481579381e-16
1.802227328e-16
1.307603353e-16
9.478051684e-17
6.863315189e-17
4.96500829e-17
3.588237616e-17
2.590759261e-17
1.868845856e-17
1.346927115e-17
9.700003079e-18
6.98073477e-18
5.020998146e-18
3.610053917e-18
2.595180622e-18
1.865830432e-18
1.342077713e-18
9.662059451e-19
6.965869807e-19
5.032330149e-19
3.645679089e-19
2.650864026e-19
1.936591343e-19
1.423068429e-19
1.053150178e-19
7.859528285e-20
5.922536333e-20
4.511814547e-20
3.478392475e-20
2.715983596e-20
2.148764802e-20
1.722632845e-20
1.398956833e-20
1.150120043e-20
9.563425586e-21
8.034194348e-21
6.811123362e-21
5.820069376e-21
5.007018434e-21
4.332331526e-21
3.766663126e-21
3.288065942e-21
2.879935905e-21
2.529551844e-21
2.22703576e-21
1.964610483e-21
1.736067645e-21
1.536384417e-21
1.361445654e-21
1.20784084e-21
1.072714275e-21
9.536533232e-22
8.486040024e-22
7.558063532e-22
6.737442411e-22
6.011057927e-22
5.367517611e-22
4.796898825e-22
4.290538222e-22
3.840856918e-22
3.441213849e-22
3.085781725e-22
2.769441342e-22
2.48769099e-22
2.23656844e-22
2.01258349e-22
1.812659464e-22
1.634082338e-22
1.474456427e-22
1.331665698e-22
1.203839977e-22
1.089325378e-22
9.866584111e-23
8.945432902e-23
8.118320358e-23
7.375070102e-23
6.706655833e-23
6.105066592e-23
5.563188324e-23
5.07469969e-23
4.633980389e-23
4.236030421e-23
3.876398969e-23
3.551121697e-23
3.256665462e-23
2.989879516e-23
2.74795243e-23
2.528374035e-23
2.328901789e-23
2.147531022e-23
1.982468624e-23
1.832109734e-23
1.695017103e-23
1.569902799e-23
1.455611978e-23
1.351108499e-23
1.255462136e-23
1.167837237e-23
1.087482631e-23
1.013722662e-23
9.459492113e-24
8.836145929e-24
8.262252313e-24
7.733360238e-24
7.245453172e-24
6.794904254e-24
6.378436301e-24
5.993086093e-24
5.636172466e-24
5.305267794e-24
4.998172487e-24
4.712892163e-24
4.447617225e-24
4.200704561e-24
3.970661144e-24
3.75612933e-24
3.555873666e-24
3.368769054e-24
3.193790121e-24
3.030001663e-24
2.87655006e-24
2.732655555e-24
2.597605302e-24
2.470747109e-24
2.351483803e-24
2.239268144e-24
2.133598248e-24
2.034013453e-24
1.940090581e-24
1.851440573e-24
1.767705436e-24
1.688555494e-24
1.613686889e-24
1.542819327e-24
1.475694031e-24
1.412071891e-24
1.351731781e-24
1.294469037e-24
1.240094066e-24
1.188431096e-24
1.139317026e-24
1.092600391e-24
1.048140411e-24
1.005806132e-24
9.654756352e-25
9.270353281e-25
8.90379284e-25
8.554086484e-25
8.22031092e-25
7.901603128e-25
7.597155795e-25
7.306213139e-25
7.028067081e-25
6.762053736e-25
6.507550197e-25
6.263971576e-25
6.030768297e-25
5.807423591e-25
5.59345121e-25
5.388393306e-25
5.19181849e-25
5.003320033e-25
4.822514212e-25
4.64903878e-25
4.482551555e-25
4.322729114e-25
4.169265579e-25
4.021871507e-25
3.880272849e-25
3.744209986e-25
3.613436842e-25
3.487720054e-25
3.366838198e-25
3.250581078e-25
3.138749061e-25
3.031152452e-25
2.927610919e-25
2.827952951e-25
2.732015361e-25
2.639642809e-25
2.550687369e-25
2.465008113e-25
2.382470731e-25
2.302947173e-25
2.226315304e-25
2.152458598e-25
2.081265834e-25
2.012630822e-25
1.946452139e-25
1.882632887e-25
1.821080459e-25
1.761706322e-25
1.704425812e-25
1.649157945e-25
1.595825231e-25
1.544353503e-25
1.494671757e-25
1.446711999e-25
1.400409101e-25
1.355700663e-25
1.312526885e-25
1.270830447e-25
1.230556391e-25
1.191652012e-25
1.154066756e-25
1.117752121e-25
1.082661563e-25
1.048750411e-25
1.015975779e-25
9.8429649e-26
9.536729969e-26
9.240673147e-26
8.954429498e-26
8.677648356e-26
8.409992717e-26
8.15113864e-26
7.900774694e-26
7.658601425e-26
7.424330851e-26
7.197685979e-26
6.978400344e-26
6.766217568e-26
6.560890942e-26
6.362183031e-26
6.169865293e-26
5.98371771e-26
5.803528443e-26
5.629093503e-26
5.460216432e-26
5.296707999e-26
5.138385915e-26
4.985074554e-26
4.836604688e-26
4.692813232e-26
4.553543009e-26
4.418642513e-26
4.287965689e-26
4.161371718e-26
4.038724816e-26
3.919894044e-26
3.804753114e-26
3.693180215e-26
3.58505784e-26
3.480272626e-26
3.378715187e-26
3.280279974e-26
3.184865129e-26
3.09237234e-26
3.002706712e-26
2.91577664e-26
2.831493687e-26
2.749772462e-26
2.670530515e-26
2.59368822e-26
2.519168676e-26
2.44689761e-26
2.376803272e-26
2.308816352e-26
2.242869887e-26
2.178899174e-26
2.116841695e-26
2.056637035e-26
1.998226804e-26
1.941554564e-26
1.886565765e-26
1.833207671e-26
1.7814293e-26
1.73118136e-26
1.682416191e-26
1.635087705e-26
1.589151335e-26
1.544563976e-26
1.501283935e-26
1.459270887e-26
1.418485819e-26
1.378890994e-26
1.340449899e-26
1.303127206e-26
1.26688873e-26
1.231701391e-26
1.197533175e-26
1.164353099e-26
1.132131173e-26
1.100838371e-26
1.070446589e-26
1.040928627e-26
1.012258146e-26
9.844096465e-27
9.573584381e-27
9.310806117e-27
9.055530135e-27
8.807532198e-27
8.566595133e-27
8.33250858e-27
8.105068792e-27
7.884078378e-27
7.669346132e-27
7.460686814e-27
7.257920929e-27
7.060874577e-27
6.86937924e-27
6.683271624e-27
6.502393474e-27
6.326591429e-27
6.155716844e-27
5.989625636e-27
5.828178149e-27
5.671239009e-27
5.518676972e-27
5.37036481e-27
5.226179169e-27
5.086000448e-27
4.949712674e-27
4.817203396e-27
4.688363561e-27
4.563087419e-27
4.44127241e-27
4.322819062e-27
4.207630888e-27
4.095614306e-27
3.986678536e-27
3.880735513e-27
3.777699805e-27
3.677488539e-27
3.580021299e-27
3.48522006e-27
3.393009117e-27
3.303315015e-27
3.216066467e-27
3.131194296e-27
3.048631361e-27
2.968312511e-27
2.89017451e-27
2.814155974e-27
2.74019732e-27
2.668240714e-27
2.598230017e-27
2.530110726e-27
2.463829932e-27
2.399336263e-27
2.336579841e-27
2.275512241e-27
2.216086442e-27
2.15825678e-27
2.101978916e-27
2.047209797e-27
1.993907609e-27
1.94203174e-27
1.891542743e-27
1.842402313e-27
1.79457324e-27
1.748019379e-27
1.702705618e-27
1.658597861e-27
1.615662969e-27
1.573868758e-27
1.533183956e-27
1.493578184e-27
1.455021922e-27
1.417486489e-27
1.380944018e-27
1.345367429e-27
1.310730406e-27
1.277007375e-27
1.244173489e-27
1.212204596e-27
1.181077226e-27
1.150768561e-27
1.121256432e-27
1.092519286e-27
1.064536175e-27
1.037286733e-27
1.010751169e-27
9.849102378e-28
9.597452314e-28
9.352379702e-28
9.113707691e-28
8.881264369e-28
8.654882602e-28
8.434399853e-28
8.219658113e-28
8.010503727e-28
7.806787278e-28
7.6083635e-28
7.415091093e-28
7.226832596e-28
7.043454349e-28
6.864826378e-28
6.690822241e-28
6.521318972e-28
6.356196944e-28
6.195339794e-28
6.038634342e-28
5.885970448e-28
5.737240976e-28
5.592341667e-28
5.451171127e-28
5.313630666e-28
5.179624276e-28
5.049058488e-28
4.921842358e-28
4.797887359e-28
4.677107344e-28
4.559418421e-28
4.444738976e-28
4.332989472e-28
4.224092536e-28
4.117972803e-28
4.014556854e-28
3.91377318e-28
3.815552154e-28
3.719825908e-28
3.626528327e-28
3.535594974e-28
3.446963005e-28
3.360571142e-28
3.27635967e-28
3.19427031e-28
3.114246166e-28
3.036231738e-28
2.96017283e-28
2.886016504e-28
2.813711025e-28
2.743205833e-28
2.674451455e-28
2.60739953e-28
2.542002695e-28
2.478214516e-28
2.415989539e-28
2.355283153e-28
2.296051597e-28
2.238251921e-28
2.181841879e-28
2.126779964e-28
2.073025359e-28
2.020537851e-28
1.969277862e-28
1.919206387e-28
1.870284984e-28
1.822475783e-28
1.77574138e-28
1.730044905e-28
1.685349914e-28
1.641620397e-28
1.598820655e-28
1.556915182e-28
1.515868484e-28
1.4756449e-28
1.436208295e-28
1.39752202e-28
1.088483309e-28
7.68761925e-29
5.435386993e-29
3.843767493e-29
2.717038832e-29
1.919217152e-29
1.354498035e-29
9.550340494e-30
6.72695676e-30
4.733244781e-30
3.326796056e-30
2.335653802e-30
1.637937628e-30
1.147325024e-30
8.027451681e-31
5.610013302e-31
3.915988904e-31
2.730382162e-31
1.901540404e-31
1.322823863e-31
9.192309409e-32
6.380500839e-32
4.423966986e-32
3.064609906e-32
2.12066422e-32
1.4661555e-32
1.012720514e-32
6.989623698e-33
4.820608351e-33
3.322625342e-33
2.28884378e-33
1.576868578e-33
1.086223719e-33
7.48455659e-34
5.169815718e-34
3.577818256e-34
2.484065187e-34
1.736243397e-34
1.224973957e-34
8.737873839e-35
6.414642484e-35
4.805252007e-35
3.78828942e-35
3.14522141e-35
2.707918154e-35
2.372070822e-35
2.127092272e-35
2.220149028e-35
2.04482777e-35
2.131912843e-35
2.259486206e-35
2.393346618e-35
2.366294606e-35
2.496969188e-35
2.661652469e-35
3.021001622e-35
3.185401212e-35
3.283092926e-35
3.457131723e-35
3.499047574e-35
3.751540683e-35
3.833836505e-35
4.067249078e-35
4.218956156e-35
4.398253869e-35
4.554218887e-35
4.740398714e-35
4.906393012e-35
5.055209915e-35
5.209346027e-35
5.315813451e-35
5.480900001e-35
5.630805364e-35
5.742845201e-35
5.914935237e-35
5.969017331e-35
6.053196394e-35
6.165690107e-35
6.20543647e-35
6.26546244e-35
6.295380614e-35
6.343489637e-35
6.425079133e-35
6.529749819e-35
6.533241395e-35
6.541400516e-35
6.570562639e-35
6.598420918e-35
6.623713172e-35
6.648337922e-35
6.668430009e-35
6.671567785e-35
6.681839244e-35
6.684514513e-35
6.698477665e-35
6.702069827e-35
6.706360598e-35
6.712599861e-35
6.715205497e-35
6.717727553e-35
6.718364861e-35
6.72110041e-35
6.721933787e-35
6.721998108e-35
6.721997233e-35
6.721311165e-35
6.721795736e-35
6.722290584e-35
6.72183757e-35
6.720235472e-35
6.721509603e-35
6.720851244e-35
6.720309165e-35
6.720331046e-35
6.720194295e-35
6.720115211e-35
6.720305373e-35
6.719692428e-35
6.72002089e-35
6.719801113e-35
6.718846263e-35
6.718900136e-35
6.719480249e-35
6.717910048e-35
6.718290957e-35
6.717355254e-35
6.718193587e-35
6.717301985e-35
6.718140583e-35
6.717716991e-35
6.717125583e-35
6.71749932e-35
6.716289307e-35
6.716684423e-35
6.719175038e-35
6.718347025e-35
6.717842993e-35
6.718521577e-35
6.719654618e-35
6.71633571e-35
6.716470421e-35
6.715642468e-35
6.718594045e-35
6.715467108e-35
6.716799095e-35
6.717510098e-35
6.716095272e-35
6.716882214e-35
6.716576603e-35
6.716042734e-35
6.717079383e-35
6.716184349e-35
6.717450421e-35
6.716417927e-35
6.716469656e-35
6.717786792e-35
6.715285263e-35
6.718745906e-35
6.716394683e-35
6.717556263e-35
6.718575734e-35
6.716135375e-35
6.71502217e-35
6.716548226e-35
6.718100456e-35
6.715917966e-35
6.7149658e-35
6.714255976e-35
6.715327629e-35
6.715149631e-35
6.715214816e-35
6.715011958e-35
6.713615387e-35
6.715030306e-35
6.715552055e-35
6.716185552e-35
6.717408867e-35
6.716612361e-35
6.71580108e-35
6.716862318e-35
6.717286572e-35
6.717814614e-35
6.716476933e-35
6.716687273e-35
6.715634837e-35
6.715532486e-35
6.714924966e-35
6.715769352e-35
6.716471402e-35
6.714830123e-35
6.715386118e-35
6.716239441e-35
6.714866654e-35
6.716703057e-35
6.716774385e-35
6.715013954e-35
6.717915696e-35
6.716151004e-35
6.71683068e-35
6.714557867e-35
6.713933315e-35
6.714425528e-35
6.715762135e-35
6.714940156e-35
6.714989676e-35
6.715713173e-35
6.716164851e-35
6.71521427e-35
6.713891487e-35
6.716060713e-35
6.714685333e-35
6.715361211e-35
6.714775128e-35
6.714694246e-35
6.714993392e-35
6.715109223e-35
6.715051977e-35
6.716179882e-35
6.714834928e-35
6.714982446e-35
6.714896973e-35
6.715821426e-35
6.714989983e-35
6.715418087e-35
6.715456364e-35
6.714791701e-35
6.714089873e-35
6.715419856e-35
6.715180759e-35
6.71495552e-35
6.715528855e-35
6.715556221e-35
6.713433137e-35
6.714393318e-35
6.714016096e-35
6.715561022e-35
6.715879636e-35
6.715083876e-35
6.714777937e-35
6.713309797e-35
6.714512445e-35
6.713085092e-35
6.712845117e-35
6.714258611e-35
6.713347595e-35
6.712790062e-35
6.713356213e-35
6.715964603e-35
6.714787407e-35
6.712836628e-35
)
;

boundaryField
{
    inlet
    {
        type            fixedValue;
        value           uniform 0;
    }
    outlet
    {
        type            zeroGradient;
    }
    wall
    {
        type            empty;
    }
}


// ************************************************************************* //
