/*--------------------------------*- C++ -*----------------------------------*\
  =========                 |
  \\      /  F ield         | OpenFOAM: The Open Source CFD Toolbox
   \\    /   O peration     | Website:  https://openfoam.org
    \\  /    A nd           | Version:  7
     \\/     M anipulation  |
\*---------------------------------------------------------------------------*/
FoamFile
{
    version     2.0;
    format      ascii;
    class       volScalarField;
    location    "0.000558243009";
    object      C2H6;
}
// * * * * * * * * * * * * * * * * * * * * * * * * * * * * * * * * * * * * * //

dimensions      [0 0 0 0 0 0 0];

internalField   nonuniform List<scalar> 
1500
(
7.095518246e-14
2.773256994e-13
5.719815136e-13
8.58196186e-13
1.071344522e-12
1.201339256e-12
1.268794422e-12
1.299293356e-12
1.311511863e-12
1.315906838e-12
1.317341961e-12
1.317771379e-12
1.317890061e-12
1.317920566e-12
1.3179279e-12
1.317929558e-12
1.317929912e-12
1.317929983e-12
1.317929997e-12
1.317929999e-12
1.31793e-12
1.31793e-12
1.31793e-12
1.31793e-12
1.31793e-12
1.31793e-12
1.31793e-12
1.31793e-12
1.31793e-12
1.31793e-12
1.31793e-12
1.31793e-12
1.31793e-12
1.31793e-12
1.31793e-12
1.31793e-12
1.31793e-12
1.31793e-12
1.31793e-12
1.31793e-12
1.31793e-12
1.31793e-12
1.31793e-12
1.31793e-12
1.31793e-12
1.31793e-12
1.31793e-12
1.31793e-12
1.31793e-12
1.31793e-12
1.31793e-12
1.31793e-12
1.31793e-12
1.31793e-12
1.31793e-12
1.31793e-12
1.31793e-12
1.31793e-12
1.31793e-12
1.31793e-12
1.31793e-12
1.31793e-12
1.31793e-12
1.31793e-12
1.31793e-12
1.31793e-12
1.31793e-12
1.31793e-12
1.31793e-12
1.31793e-12
1.31793e-12
1.31793e-12
1.31793e-12
1.31793e-12
1.31793e-12
1.31793e-12
1.31793e-12
1.31793e-12
1.31793e-12
1.31793e-12
1.31793e-12
1.31793e-12
1.31793e-12
1.31793e-12
1.31793e-12
1.31793e-12
1.31793e-12
1.31793e-12
1.31793e-12
1.31793e-12
1.31793e-12
1.31793e-12
1.31793e-12
1.31793e-12
1.31793e-12
1.31793e-12
1.31793e-12
1.31793e-12
1.31793e-12
1.31793e-12
1.31793e-12
1.31793e-12
1.31793e-12
1.31793e-12
1.31793e-12
1.31793e-12
1.31793e-12
1.31793e-12
1.31793e-12
1.31793e-12
1.31793e-12
1.31793e-12
1.31793e-12
1.31793e-12
1.31793e-12
1.31793e-12
1.31793e-12
1.31793e-12
1.31793e-12
1.31793e-12
1.31793e-12
1.31793e-12
1.31793e-12
1.31793e-12
1.31793e-12
1.31793e-12
1.31793e-12
1.31793e-12
1.31793e-12
1.31793e-12
1.31793e-12
1.31793e-12
1.31793e-12
1.31793e-12
1.31793e-12
1.31793e-12
1.31793e-12
1.31793e-12
1.31793e-12
1.31793e-12
1.31793e-12
1.31793e-12
1.31793e-12
1.31793e-12
1.31793e-12
1.31793e-12
1.31793e-12
1.31793e-12
1.31793e-12
1.31793e-12
1.31793e-12
1.31793e-12
1.31793e-12
1.31793e-12
1.31793e-12
1.31793e-12
1.31793e-12
1.31793e-12
1.31793e-12
1.31793e-12
1.31793e-12
1.31793e-12
1.31793e-12
1.31793e-12
1.31793e-12
1.31793e-12
1.31793e-12
1.31793e-12
1.31793e-12
1.31793e-12
1.31793e-12
1.31793e-12
1.31793e-12
1.31793e-12
1.31793e-12
1.31793e-12
1.31793e-12
1.31793e-12
1.31793e-12
1.31793e-12
1.31793e-12
1.31793e-12
1.31793e-12
1.31793e-12
1.31793e-12
1.31793e-12
1.31793e-12
1.31793e-12
1.31793e-12
1.31793e-12
1.31793e-12
1.31793e-12
1.31793e-12
1.31793e-12
1.31793e-12
1.31793e-12
1.31793e-12
1.31793e-12
1.31793e-12
1.31793e-12
1.31793e-12
1.31793e-12
1.31793e-12
1.31793e-12
1.31793e-12
1.31793e-12
1.31793e-12
1.31793e-12
1.31793e-12
1.31793e-12
1.31793e-12
1.31793e-12
1.31793e-12
1.31793e-12
1.31793e-12
1.31793e-12
1.31793e-12
1.31793e-12
1.31793e-12
1.31793e-12
1.31793e-12
1.31793e-12
1.31793e-12
1.31793e-12
1.31793e-12
1.31793e-12
1.31793e-12
1.31793e-12
1.31793e-12
1.31793e-12
1.31793e-12
1.31793e-12
1.31793e-12
1.31793e-12
1.31793e-12
1.31793e-12
1.317930001e-12
1.317930004e-12
1.317930017e-12
1.317930064e-12
1.317930222e-12
1.31793073e-12
1.317932262e-12
1.317936569e-12
1.317947823e-12
1.317974976e-12
1.318034858e-12
1.318153464e-12
1.318357034e-12
1.31863264e-12
1.318731917e-12
1.318760573e-12
1.318790333e-12
1.318821258e-12
1.318853397e-12
1.318886795e-12
1.318921501e-12
1.318957572e-12
1.318995065e-12
1.319034045e-12
1.319074578e-12
1.319116734e-12
1.319160586e-12
1.319206213e-12
1.319253694e-12
1.319303117e-12
1.31935457e-12
1.319408149e-12
1.319463953e-12
1.319522088e-12
1.319582663e-12
1.319645797e-12
1.319711613e-12
1.319780239e-12
1.319851814e-12
1.319926482e-12
1.320004395e-12
1.320085715e-12
1.320170612e-12
1.320259264e-12
1.320351863e-12
1.320448607e-12
1.320549708e-12
1.32065539e-12
1.320765887e-12
1.320881451e-12
1.321002343e-12
1.321128843e-12
1.321261243e-12
1.321399855e-12
1.321545007e-12
1.321697046e-12
1.321856338e-12
1.32202327e-12
1.322198253e-12
1.322381719e-12
1.322574123e-12
1.32277595e-12
1.322987709e-12
1.323209939e-12
1.323443209e-12
1.32368812e-12
1.323945307e-12
1.324215438e-12
1.324499223e-12
1.324797406e-12
1.325110777e-12
1.325440166e-12
1.32578645e-12
1.326150555e-12
1.326533456e-12
1.32693618e-12
1.327359813e-12
1.327805496e-12
1.328274433e-12
1.328767891e-12
1.329287206e-12
1.329833782e-12
1.330409098e-12
1.331014711e-12
1.331652256e-12
1.332323456e-12
1.333030119e-12
1.333774146e-12
1.334557535e-12
1.335382384e-12
1.336250893e-12
1.337165376e-12
1.338128256e-12
1.339142076e-12
1.340209502e-12
1.341333329e-12
1.342516483e-12
1.343762031e-12
1.34507318e-12
1.346453289e-12
1.347905872e-12
1.3494346e-12
1.351043312e-12
1.35273602e-12
1.354516912e-12
1.356390361e-12
1.358360931e-12
1.36043338e-12
1.36261267e-12
1.364903974e-12
1.367312678e-12
1.369844392e-12
1.372504954e-12
1.375300438e-12
1.378237158e-12
1.381321681e-12
1.384560826e-12
1.387961674e-12
1.391531577e-12
1.395278161e-12
1.399209334e-12
1.403333293e-12
1.40765853e-12
1.412193837e-12
1.416948316e-12
1.421931379e-12
1.427152763e-12
1.432622526e-12
1.438351059e-12
1.44434909e-12
1.450627689e-12
1.457198274e-12
1.464072613e-12
1.471262833e-12
1.47878142e-12
1.486641225e-12
1.49485547e-12
1.503437747e-12
1.512402022e-12
1.521762642e-12
1.53153433e-12
1.541732193e-12
1.552371721e-12
1.563468788e-12
1.575039651e-12
1.587100953e-12
1.599669721e-12
1.612763365e-12
1.626399674e-12
1.640596821e-12
1.655373352e-12
1.670748187e-12
1.686740619e-12
1.703370301e-12
1.720657251e-12
1.738621841e-12
1.757284789e-12
1.776667158e-12
1.796790344e-12
1.817676069e-12
1.839346375e-12
1.861823611e-12
1.885130423e-12
1.909289749e-12
1.9343248e-12
1.960259057e-12
1.987116249e-12
2.01492035e-12
2.043695559e-12
2.073466288e-12
2.104257149e-12
2.136092938e-12
2.16899862e-12
2.202999311e-12
2.238120268e-12
2.274386866e-12
2.311824586e-12
2.350458993e-12
2.390315726e-12
2.431420474e-12
2.473798961e-12
2.517476931e-12
2.562480124e-12
2.608834266e-12
2.656565047e-12
2.705698103e-12
2.756259002e-12
2.808273225e-12
2.861766151e-12
2.91676304e-12
2.973289018e-12
3.031369061e-12
3.091027982e-12
3.152290419e-12
3.215180816e-12
3.279723422e-12
3.345942268e-12
3.413861166e-12
3.483503699e-12
3.55489321e-12
3.628052801e-12
3.703005325e-12
3.779773386e-12
3.858379335e-12
3.938845275e-12
4.021193057e-12
4.105444293e-12
4.191620355e-12
4.279742386e-12
4.369831315e-12
4.461907866e-12
4.555992574e-12
4.652105806e-12
4.750267783e-12
4.8504986e-12
4.952818255e-12
5.057246683e-12
5.163803782e-12
5.272509457e-12
5.383383652e-12
5.496446402e-12
5.611717871e-12
5.72921841e-12
5.848968608e-12
5.970989348e-12
6.095301874e-12
6.221927854e-12
6.35088945e-12
6.482209398e-12
6.615911077e-12
6.752018604e-12
6.890556914e-12
7.031551855e-12
7.175030287e-12
7.321020184e-12
7.469550738e-12
7.620652478e-12
7.774357379e-12
7.930698993e-12
8.089712571e-12
8.251435199e-12
8.415905936e-12
8.583165959e-12
8.753258713e-12
8.926230066e-12
9.102128472e-12
9.281005138e-12
9.462914195e-12
9.647912884e-12
9.836061735e-12
1.002742476e-11
1.022206966e-11
1.042006802e-11
1.062149553e-11
1.082643218e-11
1.103496252e-11
1.124717586e-11
1.146316655e-11
1.168303418e-11
1.190688384e-11
1.213482643e-11
1.236697888e-11
1.260346442e-11
1.28444129e-11
1.308996108e-11
1.33402529e-11
1.359543982e-11
1.385568111e-11
1.41211442e-11
1.439200503e-11
1.466844835e-11
1.495066811e-11
1.523886782e-11
1.553326093e-11
1.583407124e-11
1.614153324e-11
1.645589264e-11
1.677740663e-11
1.710634455e-11
1.744298817e-11
1.778763213e-11
1.814058451e-11
1.850216728e-11
1.887271685e-11
1.925258459e-11
1.964213738e-11
2.004175818e-11
2.045184658e-11
2.087281942e-11
2.130511134e-11
2.174917546e-11
2.220548405e-11
2.267452908e-11
2.315682309e-11
2.365289991e-11
2.416331544e-11
2.468864845e-11
2.522950149e-11
2.578650185e-11
2.636030236e-11
2.695158236e-11
2.756104879e-11
2.818943729e-11
2.883751341e-11
2.950607383e-11
3.01959477e-11
3.090799805e-11
3.164312335e-11
3.240225913e-11
3.318637975e-11
3.399650039e-11
3.48336791e-11
3.569901918e-11
3.659367167e-11
3.751883818e-11
3.847577403e-11
3.946579168e-11
4.049026467e-11
4.15506319e-11
4.264840262e-11
4.378516194e-11
4.496257718e-11
4.6182405e-11
4.744649968e-11
4.875682251e-11
5.011545258e-11
5.152459931e-11
5.298661683e-11
5.450402067e-11
5.607950706e-11
5.771597547e-11
5.941655474e-11
6.118463356e-11
6.302389609e-11
6.493836354e-11
6.693244279e-11
6.901098338e-11
7.117934428e-11
7.344347211e-11
7.58099931e-11
7.828632089e-11
8.088078336e-11
8.360277153e-11
8.646291483e-11
8.947328714e-11
9.26476493e-11
9.600173454e-11
9.955358453e-11
1.033239451e-10
1.073367322e-10
1.116195813e-10
1.162044936e-10
1.211285987e-10
1.264350526e-10
1.321740959e-10
1.384043016e-10
1.451940455e-10
1.526232392e-10
1.607853733e-10
1.697899261e-10
1.797652028e-10
1.908616825e-10
2.03255965e-10
2.171554225e-10
2.328036844e-10
2.504871037e-10
2.705423799e-10
2.933655463e-10
3.194225648e-10
3.492618171e-10
3.835288288e-10
4.229836287e-10
4.685212114e-10
5.211956588e-10
5.822485744e-10
6.53142599e-10
7.356009158e-10
8.316538125e-10
9.436935598e-10
1.074539087e-09
1.227512202e-09
1.406527409e-09
1.616197747e-09
1.861959489e-09
2.150219071e-09
2.488526177e-09
2.885777631e-09
3.352457559e-09
3.900920228e-09
4.545723128e-09
5.304019142e-09
6.196018245e-09
7.245530954e-09
8.480607895e-09
9.934292336e-09
1.164550544e-08
1.366008736e-08
1.603202137e-08
1.882487259e-08
2.211347847e-08
2.598593438e-08
3.054592456e-08
3.591545742e-08
4.223807354e-08
4.968260562e-08
5.844758257e-08
6.876638396e-08
8.091326767e-08
9.521041177e-08
1.120361326e-07
1.318344637e-07
1.551263064e-07
1.825223891e-07
2.147383041e-07
2.52611922e-07
2.971235138e-07
3.494189491e-07
4.108363659e-07
4.829367385e-07
5.675387945e-07
6.667587446e-07
7.830552942e-07
9.192803882e-07
1.078736106e-06
1.265238051e-06
1.483185484e-06
1.737638291e-06
2.034400678e-06
2.380111247e-06
2.782338755e-06
3.249682518e-06
3.791875982e-06
4.419891487e-06
5.14604382e-06
5.984089631e-06
6.949319411e-06
8.05863841e-06
9.330632738e-06
1.078561697e-05
1.244565988e-05
1.433458554e-05
1.647794792e-05
1.890297815e-05
2.163850503e-05
2.471485055e-05
2.816370366e-05
3.201797655e-05
3.63116488e-05
4.107960513e-05
4.635747308e-05
5.218146674e-05
5.858824232e-05
6.561477097e-05
7.329823498e-05
8.167594782e-05
9.078530696e-05
0.0001006637801
0.0001113489345
0.0001228785266
0.0001352906978
0.000148624379
0.000162916271
0.0001782201047
0.0001945589742
0.0002120510072
0.0002307438963
0.0002507059353
0.0002716467821
0.0002938241008
0.0003172847092
0.0003420633764
0.0003681588575
0.0003954750469
0.0004237318772
0.0004523556289
0.0004803997402
0.000506595855
0.0005295045295
0.0005480175147
0.0005601482038
0.0005650600296
0.0005617982746
0.0005495571988
0.0005282882009
0.0004980849268
0.0004598380716
0.0004148997139
0.0003658736966
0.0003147436627
0.0002639721574
0.0002158696134
0.000172312565
0.0001345359379
0.0001028738203
7.751239709e-05
5.756384285e-05
4.236631325e-05
3.094909751e-05
2.248768004e-05
1.628109067e-05
1.176486772e-05
8.462734722e-06
6.064200103e-06
4.340765618e-06
3.105034616e-06
2.220022478e-06
1.586515223e-06
1.133163571e-06
8.085016927e-07
5.757855467e-07
4.098238678e-07
2.936167472e-07
2.105937773e-07
1.505374193e-07
1.077382883e-07
7.720825298e-08
5.540208925e-08
3.980598041e-08
2.86368438e-08
2.063717399e-08
1.488889273e-08
1.075820988e-08
7.786482179e-09
5.645914011e-09
4.101997431e-09
2.986817163e-09
2.180041342e-09
1.595366259e-09
1.170840377e-09
8.619519129e-10
6.366873885e-10
4.719969729e-10
3.512646333e-10
2.624963466e-10
1.970217256e-10
1.48562893e-10
1.125662536e-10
8.572249731e-11
6.562150046e-11
5.050395862e-11
3.908243094e-11
3.041223497e-11
2.379817629e-11
1.872706345e-11
1.481879814e-11
1.179086275e-11
9.432484071e-12
7.585795981e-12
6.132072871e-12
4.981643394e-12
4.066480603e-12
3.334742501e-12
2.7467372e-12
2.271931186e-12
1.886723394e-12
1.572783055e-12
1.315803868e-12
1.104566539e-12
9.302305356e-13
7.85796763e-13
6.656982039e-13
5.654866901e-13
4.81592189e-13
4.11137001e-13
3.517917116e-13
3.016630213e-13
2.592060169e-13
2.231552612e-13
1.924704319e-13
1.662932571e-13
1.439132591e-13
1.247403937e-13
1.082831103e-13
9.413069167e-14
8.193898344e-14
7.141882221e-14
6.232661724e-14
5.445665911e-14
4.763481758e-14
4.171336094e-14
3.656668412e-14
3.208777537e-14
2.818528536e-14
2.478108922e-14
2.180825297e-14
1.920933307e-14
1.693495071e-14
1.494259378e-14
1.319560776e-14
1.166234376e-14
1.031543791e-14
9.131200412e-15
8.089096652e-15
7.171305665e-15
6.362343729e-15
5.648742936e-15
5.01877626e-15
4.462222032e-15
3.970161849e-15
3.534806942e-15
3.149348773e-15
2.807830312e-15
2.505034992e-15
2.236390795e-15
1.997887308e-15
1.786003915e-15
1.597647556e-15
1.430098734e-15
1.280964613e-15
1.148138251e-15
1.029763115e-15
9.24202181e-16
8.30010995e-16
7.459141625e-16
6.707848222e-16
6.03626704e-16
5.435584347e-16
4.897998e-16
4.416597092e-16
3.985256439e-16
3.598544002e-16
3.251639617e-16
2.940263583e-16
2.660613891e-16
2.409310983e-16
2.183349141e-16
1.98005365e-16
1.797043048e-16
1.632195825e-16
1.483621036e-16
1.349632353e-16
1.228725128e-16
1.119556126e-16
1.020925589e-16
9.317613623e-17
8.511048352e-17
7.780984868e-17
7.119748404e-17
6.520466678e-17
5.97698294e-17
5.483778767e-17
5.035905464e-17
4.628923087e-17
4.258846217e-17
3.922095702e-17
3.615455701e-17
3.336035419e-17
3.081235015e-17
2.848715201e-17
2.636370128e-17
2.442303189e-17
2.264805416e-17
2.102336184e-17
1.953505966e-17
1.817060917e-17
1.691869086e-17
1.576908071e-17
1.471253978e-17
1.374071525e-17
1.284605175e-17
1.202171192e-17
1.126150511e-17
1.055982346e-17
9.911584505e-18
9.312179634e-18
8.757427795e-18
8.243533895e-18
7.767051396e-18
7.324848664e-18
6.914078704e-18
6.532151906e-18
6.176711504e-18
5.845611473e-18
5.536896596e-18
5.24878451e-18
4.979649492e-18
4.728007845e-18
4.492504698e-18
4.271902084e-18
4.065068178e-18
3.870967559e-18
3.688652418e-18
3.517254596e-18
3.355978385e-18
3.204094009e-18
3.060931723e-18
2.925876463e-18
2.798363004e-18
2.677871561e-18
2.563923809e-18
2.456079263e-18
2.353931997e-18
2.257107665e-18
2.165260786e-18
2.078072291e-18
1.99524728e-18
1.916512983e-18
1.841616916e-18
1.770325183e-18
1.702420948e-18
1.637703031e-18
1.575984632e-18
1.517092164e-18
1.460864197e-18
1.407150479e-18
1.355811058e-18
1.306715469e-18
1.259741991e-18
1.214776976e-18
1.171714224e-18
1.130454417e-18
1.090904601e-18
1.052977708e-18
1.016592118e-18
9.816712617e-19
9.481432471e-19
9.159405259e-19
8.849995805e-19
8.552606388e-19
8.266674109e-19
7.991668472e-19
7.727089149e-19
7.472463932e-19
7.227346825e-19
6.9913163e-19
6.76397368e-19
6.544941644e-19
6.333862843e-19
6.130398625e-19
5.93422785e-19
5.74504579e-19
5.562563118e-19
5.38650496e-19
5.216610023e-19
5.052629777e-19
4.894327703e-19
4.741478585e-19
4.593867859e-19
4.451291e-19
4.313552956e-19
4.180467613e-19
4.051857304e-19
3.927552345e-19
3.807390603e-19
3.691217088e-19
3.57888358e-19
3.470248268e-19
3.365175423e-19
3.263535085e-19
3.165202765e-19
3.070059178e-19
2.977989978e-19
2.888885519e-19
2.802640624e-19
2.719154371e-19
2.63832989e-19
2.560074168e-19
2.484297875e-19
2.410915188e-19
2.339843631e-19
2.271003924e-19
2.204319838e-19
2.139718061e-19
2.077128065e-19
2.016481986e-19
1.957714507e-19
1.900762749e-19
1.845566167e-19
1.79206645e-19
1.740207426e-19
1.689934976e-19
1.641196943e-19
1.593943057e-19
1.548124854e-19
1.503695606e-19
1.460610247e-19
1.418825308e-19
1.378298856e-19
1.338990429e-19
1.300860982e-19
1.263872829e-19
1.227989592e-19
1.193176149e-19
1.159398586e-19
1.126624155e-19
1.094821221e-19
1.06395923e-19
1.034008662e-19
1.004940993e-19
9.767286619e-20
9.493450302e-20
9.227643505e-20
8.969617339e-20
8.719131179e-20
8.475952372e-20
8.239855942e-20
8.010624322e-20
7.78804708e-20
7.571920671e-20
7.362048195e-20
7.158239151e-20
6.960309223e-20
6.768080053e-20
6.581379045e-20
6.400039153e-20
6.223898695e-20
6.052801164e-20
5.886595054e-20
5.725133679e-20
5.568275021e-20
5.415881562e-20
5.267820133e-20
5.123961767e-20
4.984181558e-20
4.848358521e-20
4.716375464e-20
4.588118859e-20
4.463478722e-20
4.342348488e-20
4.22462491e-20
4.110207936e-20
3.999000611e-20
3.890908975e-20
3.785841959e-20
3.6837113e-20
3.584431442e-20
3.487919449e-20
3.394094919e-20
3.302879904e-20
3.214198831e-20
3.127978421e-20
3.044147621e-20
2.96263753e-20
2.883381328e-20
2.806314215e-20
2.73137334e-20
2.658497742e-20
2.587628291e-20
2.518707627e-20
2.451680109e-20
2.386491755e-20
2.323090195e-20
2.261424616e-20
2.201445714e-20
2.143105649e-20
2.086357999e-20
2.031157715e-20
1.977461075e-20
1.925225649e-20
1.874410255e-20
1.82497492e-20
1.776880846e-20
1.730090371e-20
1.684566935e-20
1.640275046e-20
1.597180246e-20
1.555249083e-20
1.514449075e-20
1.474748687e-20
1.436117294e-20
1.398525162e-20
1.361943417e-20
1.326344014e-20
1.291699723e-20
1.257984093e-20
1.225171437e-20
1.193236803e-20
1.162155959e-20
1.131905364e-20
1.10246215e-20
1.073804103e-20
1.045909645e-20
1.018757809e-20
9.923282284e-21
9.666011131e-21
9.415572362e-21
9.171779146e-21
8.934449956e-21
8.703408386e-21
8.478483027e-21
8.259507301e-21
8.046319326e-21
7.838761767e-21
7.636681722e-21
7.43993058e-21
7.248363895e-21
7.061841267e-21
6.880226242e-21
6.703386162e-21
6.531192073e-21
6.363518622e-21
6.200243954e-21
6.041249594e-21
5.886420368e-21
5.735644287e-21
5.588812486e-21
5.445819114e-21
5.306561238e-21
5.170938775e-21
5.038854406e-21
4.910213502e-21
4.784924038e-21
4.662896527e-21
4.544043936e-21
4.428281628e-21
4.315527285e-21
4.205700854e-21
4.098724465e-21
3.994522383e-21
3.893020952e-21
3.794148522e-21
3.697835398e-21
3.604013775e-21
3.512617711e-21
3.423583048e-21
3.336847374e-21
3.252349968e-21
3.170031773e-21
3.089835312e-21
3.011704678e-21
2.935585472e-21
2.861424767e-21
2.789171063e-21
2.718774254e-21
2.650185584e-21
2.583357608e-21
2.518244159e-21
2.454800307e-21
2.392982339e-21
2.332747712e-21
2.274055023e-21
2.216863972e-21
2.161135348e-21
2.106830983e-21
2.053913731e-21
2.002347436e-21
1.952096911e-21
1.903127901e-21
1.855407067e-21
1.808901964e-21
1.763580998e-21
1.719413417e-21
1.676369289e-21
1.634419471e-21
1.593535595e-21
1.553690044e-21
1.514855932e-21
1.477007087e-21
1.440118024e-21
1.404163924e-21
1.369120626e-21
1.334964606e-21
1.301672959e-21
1.26922338e-21
1.23759415e-21
1.206764116e-21
1.176712683e-21
1.147419789e-21
1.118865897e-21
1.091031977e-21
1.063899498e-21
1.037450408e-21
1.011667125e-21
9.865325171e-22
9.620298964e-22
9.381430028e-22
9.148559965e-22
8.921534384e-22
8.70020291e-22
8.484418885e-22
8.274039467e-22
8.068925388e-22
7.868940858e-22
7.673953484e-22
7.483834213e-22
7.298457145e-22
7.117699499e-22
6.941441494e-22
6.7695662e-22
6.601959497e-22
6.438510039e-22
6.27910906e-22
6.123650281e-22
5.972029912e-22
5.824146498e-22
5.679900838e-22
5.53919589e-22
5.401936711e-22
5.26803032e-22
5.1373857e-22
5.009913638e-22
4.885526599e-22
4.764138778e-22
4.645665902e-22
4.530025209e-22
4.417135386e-22
4.306916409e-22
4.199289574e-22
4.094177419e-22
3.991503593e-22
3.891192906e-22
3.793171232e-22
3.697365512e-22
3.603703766e-22
3.512114978e-22
3.422529226e-22
3.334877586e-22
3.249092233e-22
3.165106402e-22
3.082854401e-22
3.002271671e-22
2.923294925e-22
2.845862354e-22
2.769914409e-22
2.163444489e-22
1.53034576e-22
1.084245463e-22
7.68168671e-23
5.438388153e-23
3.846309779e-23
2.717172143e-23
1.917127416e-23
1.350890181e-23
9.506178353e-24
6.680275831e-24
4.687843916e-24
3.284975505e-24
2.298601e-24
1.606079e-24
1.12055813e-24
7.806578316e-25
5.430714736e-25
3.77242174e-25
2.616758945e-25
1.81260497e-25
1.253790555e-25
8.660762582e-26
5.975640424e-26
4.117790951e-26
2.834675813e-26
1.94956846e-26
1.33998163e-26
9.207125796e-27
6.327506646e-27
4.35217659e-27
3.000716766e-27
2.076197993e-27
1.445024919e-27
1.016607831e-27
7.254204335e-28
5.282521665e-28
3.959592631e-28
3.078736484e-28
2.496686409e-28
2.133946316e-28
1.905520054e-28
1.786652477e-28
1.737706317e-28
1.729090494e-28
1.742841336e-28
1.778556501e-28
1.871983449e-28
1.930102818e-28
2.03292599e-28
2.143962427e-28
2.262878155e-28
2.360630594e-28
2.485011536e-28
2.619998449e-28
2.787282068e-28
2.926443059e-28
3.056074953e-28
3.200072917e-28
3.326325834e-28
3.483001513e-28
3.614256638e-28
3.767348445e-28
3.907770949e-28
4.049011191e-28
4.184463482e-28
4.320960927e-28
4.450972731e-28
4.574453258e-28
4.693993615e-28
4.802015775e-28
4.913289582e-28
5.016804223e-28
5.10983467e-28
5.205696629e-28
5.279147685e-28
5.35072279e-28
5.422133163e-28
5.477999005e-28
5.531965972e-28
5.576191583e-28
5.619093085e-28
5.662202523e-28
5.704767973e-28
5.729940757e-28
5.752462236e-28
5.774707197e-28
5.79431442e-28
5.811050275e-28
5.825753147e-28
5.838023478e-28
5.8463524e-28
5.85428434e-28
5.860025691e-28
5.866076292e-28
5.870006751e-28
5.873354489e-28
5.8763486e-28
5.878342204e-28
5.879962471e-28
5.881028407e-28
5.88209161e-28
5.882757711e-28
5.883137447e-28
5.883406324e-28
5.883516778e-28
5.883704213e-28
5.883846029e-28
5.883803411e-28
5.883594584e-28
5.883739085e-28
5.883626416e-28
5.883519366e-28
5.883463859e-28
5.883386881e-28
5.883311403e-28
5.883260594e-28
5.883109732e-28
5.883075588e-28
5.882957721e-28
5.882741245e-28
5.882668756e-28
5.88266076e-28
5.882364362e-28
5.882340393e-28
5.882138761e-28
5.882194994e-28
5.882009774e-28
5.882070346e-28
5.881964183e-28
5.881841821e-28
5.881861311e-28
5.8816572e-28
5.881692547e-28
5.882015733e-28
5.881883997e-28
5.881813165e-28
5.88188507e-28
5.882028733e-28
5.881556277e-28
5.881577631e-28
5.881447379e-28
5.881838478e-28
5.881394851e-28
5.881571816e-28
5.881666246e-28
5.88146117e-28
5.88153583e-28
5.881466886e-28
5.881380199e-28
5.881502307e-28
5.88137304e-28
5.881537653e-28
5.881406923e-28
5.881373651e-28
5.881551753e-28
5.881190357e-28
5.881649593e-28
5.88130396e-28
5.88144396e-28
5.881565002e-28
5.881211565e-28
5.881066819e-28
5.881263616e-28
5.881449582e-28
5.881189651e-28
5.881030933e-28
5.880935734e-28
5.881075544e-28
5.881079241e-28
5.881067565e-28
5.881044605e-28
5.880837928e-28
5.88101722e-28
5.881077593e-28
5.881178718e-28
5.881313349e-28
5.881223678e-28
5.881095157e-28
5.881234139e-28
5.881268313e-28
5.881353313e-28
5.881186721e-28
5.881200934e-28
5.881048248e-28
5.881061344e-28
5.880976399e-28
5.881090764e-28
5.881182275e-28
5.880966613e-28
5.881034233e-28
5.88116252e-28
5.880978452e-28
5.881211037e-28
5.881221e-28
5.88100913e-28
5.881388645e-28
5.88116871e-28
5.881258743e-28
5.880980403e-28
5.880892404e-28
5.880977546e-28
5.881139228e-28
5.88103978e-28
5.881058977e-28
5.881158356e-28
5.881205165e-28
5.881087283e-28
5.880932086e-28
5.881205273e-28
5.881019177e-28
5.881119438e-28
5.881036525e-28
5.881029264e-28
5.881074239e-28
5.881090807e-28
5.881085496e-28
5.881236926e-28
5.881062053e-28
5.881076136e-28
5.881071214e-28
5.881194615e-28
5.881084092e-28
5.881140744e-28
5.881145408e-28
5.881047409e-28
5.880949434e-28
5.881132711e-28
5.881102705e-28
5.881068133e-28
5.881145637e-28
5.881146264e-28
5.880846205e-28
5.880976017e-28
5.880930257e-28
5.881136599e-28
5.881184873e-28
5.881067543e-28
5.881024287e-28
5.880829638e-28
5.880993966e-28
5.880790385e-28
5.880762554e-28
5.880948284e-28
5.88081894e-28
5.880738097e-28
5.880828804e-28
5.881178366e-28
5.880987808e-28
5.880735991e-28
)
;

boundaryField
{
    inlet
    {
        type            fixedValue;
        value           uniform 0;
    }
    outlet
    {
        type            zeroGradient;
    }
    wall
    {
        type            empty;
    }
}


// ************************************************************************* //
