/*--------------------------------*- C++ -*----------------------------------*\
  =========                 |
  \\      /  F ield         | OpenFOAM: The Open Source CFD Toolbox
   \\    /   O peration     | Website:  https://openfoam.org
    \\  /    A nd           | Version:  7
     \\/     M anipulation  |
\*---------------------------------------------------------------------------*/
FoamFile
{
    version     2.0;
    format      ascii;
    class       volScalarField;
    location    "0.000558243009";
    object      C2H6_0;
}
// * * * * * * * * * * * * * * * * * * * * * * * * * * * * * * * * * * * * * //

dimensions      [0 0 0 0 0 0 0];

internalField   nonuniform List<scalar> 
1500
(
7.100437964e-14
2.774729198e-13
5.721979947e-13
8.584109391e-13
1.071507647e-12
1.201440526e-12
1.268847757e-12
1.299317765e-12
1.311521743e-12
1.315910425e-12
1.317343143e-12
1.317771735e-12
1.317890161e-12
1.317920592e-12
1.317927906e-12
1.317929559e-12
1.317929912e-12
1.317929983e-12
1.317929997e-12
1.317929999e-12
1.31793e-12
1.31793e-12
1.31793e-12
1.31793e-12
1.31793e-12
1.31793e-12
1.31793e-12
1.31793e-12
1.31793e-12
1.31793e-12
1.31793e-12
1.31793e-12
1.31793e-12
1.31793e-12
1.31793e-12
1.31793e-12
1.31793e-12
1.31793e-12
1.31793e-12
1.31793e-12
1.31793e-12
1.31793e-12
1.31793e-12
1.31793e-12
1.31793e-12
1.31793e-12
1.31793e-12
1.31793e-12
1.31793e-12
1.31793e-12
1.31793e-12
1.31793e-12
1.31793e-12
1.31793e-12
1.31793e-12
1.31793e-12
1.31793e-12
1.31793e-12
1.31793e-12
1.31793e-12
1.31793e-12
1.31793e-12
1.31793e-12
1.31793e-12
1.31793e-12
1.31793e-12
1.31793e-12
1.31793e-12
1.31793e-12
1.31793e-12
1.31793e-12
1.31793e-12
1.31793e-12
1.31793e-12
1.31793e-12
1.31793e-12
1.31793e-12
1.31793e-12
1.31793e-12
1.31793e-12
1.31793e-12
1.31793e-12
1.31793e-12
1.31793e-12
1.31793e-12
1.31793e-12
1.31793e-12
1.31793e-12
1.31793e-12
1.31793e-12
1.31793e-12
1.31793e-12
1.31793e-12
1.31793e-12
1.31793e-12
1.31793e-12
1.31793e-12
1.31793e-12
1.31793e-12
1.31793e-12
1.31793e-12
1.31793e-12
1.31793e-12
1.31793e-12
1.31793e-12
1.31793e-12
1.31793e-12
1.31793e-12
1.31793e-12
1.31793e-12
1.31793e-12
1.31793e-12
1.31793e-12
1.31793e-12
1.31793e-12
1.31793e-12
1.31793e-12
1.31793e-12
1.31793e-12
1.31793e-12
1.31793e-12
1.31793e-12
1.31793e-12
1.31793e-12
1.31793e-12
1.31793e-12
1.31793e-12
1.31793e-12
1.31793e-12
1.31793e-12
1.31793e-12
1.31793e-12
1.31793e-12
1.31793e-12
1.31793e-12
1.31793e-12
1.31793e-12
1.31793e-12
1.31793e-12
1.31793e-12
1.31793e-12
1.31793e-12
1.31793e-12
1.31793e-12
1.31793e-12
1.31793e-12
1.31793e-12
1.31793e-12
1.31793e-12
1.31793e-12
1.31793e-12
1.31793e-12
1.31793e-12
1.31793e-12
1.31793e-12
1.31793e-12
1.31793e-12
1.31793e-12
1.31793e-12
1.31793e-12
1.31793e-12
1.31793e-12
1.31793e-12
1.31793e-12
1.31793e-12
1.31793e-12
1.31793e-12
1.31793e-12
1.31793e-12
1.31793e-12
1.31793e-12
1.31793e-12
1.31793e-12
1.31793e-12
1.31793e-12
1.31793e-12
1.31793e-12
1.31793e-12
1.31793e-12
1.31793e-12
1.31793e-12
1.31793e-12
1.31793e-12
1.31793e-12
1.31793e-12
1.31793e-12
1.31793e-12
1.31793e-12
1.31793e-12
1.31793e-12
1.31793e-12
1.31793e-12
1.31793e-12
1.31793e-12
1.31793e-12
1.31793e-12
1.31793e-12
1.31793e-12
1.31793e-12
1.31793e-12
1.31793e-12
1.31793e-12
1.31793e-12
1.31793e-12
1.31793e-12
1.31793e-12
1.31793e-12
1.31793e-12
1.31793e-12
1.31793e-12
1.31793e-12
1.31793e-12
1.31793e-12
1.31793e-12
1.31793e-12
1.31793e-12
1.31793e-12
1.31793e-12
1.31793e-12
1.31793e-12
1.31793e-12
1.31793e-12
1.31793e-12
1.31793e-12
1.31793e-12
1.31793e-12
1.31793e-12
1.31793e-12
1.31793e-12
1.31793e-12
1.31793e-12
1.31793e-12
1.31793e-12
1.31793e-12
1.31793e-12
1.31793e-12
1.317930001e-12
1.317930004e-12
1.317930017e-12
1.317930064e-12
1.317930222e-12
1.317930731e-12
1.317932265e-12
1.317936577e-12
1.317947846e-12
1.317975038e-12
1.318035011e-12
1.318153804e-12
1.318357702e-12
1.318633762e-12
1.318733219e-12
1.318761906e-12
1.318791712e-12
1.318822692e-12
1.318854887e-12
1.318888343e-12
1.31892311e-12
1.318959242e-12
1.318996799e-12
1.319035846e-12
1.319076448e-12
1.319118676e-12
1.319162604e-12
1.31920831e-12
1.319255874e-12
1.319305383e-12
1.319356926e-12
1.319410599e-12
1.319466501e-12
1.319524738e-12
1.319585421e-12
1.319648668e-12
1.3197146e-12
1.31978335e-12
1.319855053e-12
1.319929856e-12
1.32000791e-12
1.320089378e-12
1.320174429e-12
1.320263244e-12
1.320356013e-12
1.320452935e-12
1.320554224e-12
1.320660102e-12
1.320770806e-12
1.320886586e-12
1.321007706e-12
1.321134445e-12
1.321267096e-12
1.321405972e-12
1.321551402e-12
1.321703733e-12
1.321863332e-12
1.322030588e-12
1.322205911e-12
1.322389734e-12
1.322582516e-12
1.322784739e-12
1.322996916e-12
1.323219587e-12
1.32345332e-12
1.32369872e-12
1.323956421e-12
1.324227095e-12
1.324511452e-12
1.324810238e-12
1.325124245e-12
1.325454305e-12
1.325801296e-12
1.326166146e-12
1.326549833e-12
1.326953387e-12
1.327377895e-12
1.3278245e-12
1.32829441e-12
1.328788895e-12
1.329309292e-12
1.32985701e-12
1.330433531e-12
1.331040414e-12
1.331679299e-12
1.332351912e-12
1.333060064e-12
1.333805662e-12
1.334590707e-12
1.335417301e-12
1.336287651e-12
1.337204073e-12
1.338168996e-12
1.33918497e-12
1.340254664e-12
1.34138088e-12
1.342566551e-12
1.343814748e-12
1.345128687e-12
1.346511732e-12
1.347967404e-12
1.349499383e-12
1.351111515e-12
1.352807819e-12
1.354592493e-12
1.356469917e-12
1.358444664e-12
1.360521502e-12
1.362705403e-12
1.365001549e-12
1.367415337e-12
1.369952386e-12
1.372618546e-12
1.375419902e-12
1.378362782e-12
1.381453761e-12
1.384699672e-12
1.388107611e-12
1.391684941e-12
1.395439302e-12
1.399378615e-12
1.403511093e-12
1.407845242e-12
1.412389868e-12
1.41715409e-12
1.422147336e-12
1.427379357e-12
1.43286023e-12
1.438600362e-12
1.444610499e-12
1.450901728e-12
1.457485484e-12
1.464373556e-12
1.471578087e-12
1.479111583e-12
1.486986916e-12
1.495217326e-12
1.503816425e-12
1.512798201e-12
1.522177018e-12
1.531967624e-12
1.542185145e-12
1.552845091e-12
1.563963359e-12
1.575556228e-12
1.587640362e-12
1.60023281e-12
1.613351004e-12
1.627012756e-12
1.64123626e-12
1.656040084e-12
1.671443173e-12
1.687464838e-12
1.704124758e-12
1.721442972e-12
1.739439872e-12
1.758136201e-12
1.777553042e-12
1.797711814e-12
1.818634259e-12
1.84034244e-12
1.862858727e-12
1.886205788e-12
1.910406578e-12
1.935484332e-12
1.961462546e-12
1.988364972e-12
2.016215599e-12
2.045038645e-12
2.07485854e-12
2.105699913e-12
2.137587575e-12
2.170546505e-12
2.204601838e-12
2.239778842e-12
2.276102905e-12
2.313599522e-12
2.352294269e-12
2.392212797e-12
2.433380804e-12
2.475824024e-12
2.519568208e-12
2.564639106e-12
2.611062449e-12
2.658863932e-12
2.708069197e-12
2.758703815e-12
2.810793271e-12
2.864362946e-12
2.919438099e-12
2.976043858e-12
3.034205197e-12
3.093946929e-12
3.155293687e-12
3.218269915e-12
3.282899853e-12
3.349207531e-12
3.417216754e-12
3.486951097e-12
3.558433897e-12
3.631688248e-12
3.706736994e-12
3.783602731e-12
3.862307799e-12
3.942874292e-12
4.025324052e-12
4.109678677e-12
4.195959531e-12
4.284187748e-12
4.374384243e-12
4.46656973e-12
4.560764736e-12
4.656989617e-12
4.755264584e-12
4.855609723e-12
4.958045027e-12
5.062590421e-12
5.169265799e-12
5.27809106e-12
5.389086146e-12
5.502271088e-12
5.617666052e-12
5.735291391e-12
5.855167696e-12
5.977315859e-12
6.101757132e-12
6.228513193e-12
6.357606222e-12
6.489058969e-12
6.622894838e-12
6.759137967e-12
6.897813322e-12
7.038946785e-12
7.182565251e-12
7.328696738e-12
7.477370485e-12
7.628617072e-12
7.782468534e-12
7.938958486e-12
8.098122248e-12
8.259996984e-12
8.424621837e-12
8.592038073e-12
8.762289236e-12
8.9354213e-12
9.111482833e-12
9.290525165e-12
9.472602558e-12
9.657772395e-12
9.846095354e-12
1.003763561e-11
1.023246104e-11
1.04306434e-11
1.063225857e-11
1.083738676e-11
1.104611273e-11
1.125852603e-11
1.147472123e-11
1.169479818e-11
1.191886227e-11
1.214702465e-11
1.237940255e-11
1.261611953e-11
1.285730578e-11
1.310309837e-11
1.335364163e-11
1.360908739e-11
1.386959532e-11
1.413533328e-11
1.440647761e-11
1.468321355e-11
1.49657355e-11
1.525424748e-11
1.554896345e-11
1.585010774e-11
1.615791541e-11
1.647263275e-11
1.679451755e-11
1.712383978e-11
1.74608819e-11
1.780593921e-11
1.815932049e-11
1.852134845e-11
1.889236026e-11
1.927270808e-11
1.966275963e-11
2.006289871e-11
2.047352581e-11
2.089505868e-11
2.132793293e-11
2.177260266e-11
2.222954117e-11
2.269924145e-11
2.318221715e-11
2.367900322e-11
2.419015674e-11
2.471625766e-11
2.525790978e-11
2.581574174e-11
2.63904077e-11
2.698258839e-11
2.759299216e-11
2.822235616e-11
2.887144748e-11
2.954106439e-11
3.023203769e-11
3.094523214e-11
3.168154796e-11
3.244192252e-11
3.322733209e-11
3.403879383e-11
3.487736784e-11
3.574415954e-11
3.664032219e-11
3.756705971e-11
3.852562981e-11
3.951734745e-11
4.054358878e-11
4.160579543e-11
4.270547949e-11
4.384422909e-11
4.502371465e-11
4.624569618e-11
4.751203143e-11
4.882468537e-11
5.018574103e-11
5.159741199e-11
5.306205682e-11
5.458219579e-11
5.616053026e-11
5.779996523e-11
5.950363548e-11
6.127493622e-11
6.311755869e-11
6.503553187e-11
6.70332712e-11
6.91156357e-11
7.128799484e-11
7.355630697e-11
7.592721145e-11
7.84081367e-11
8.100742724e-11
8.373449296e-11
8.659998474e-11
8.961600088e-11
9.279633017e-11
9.615673784e-11
9.971530236e-11
1.034928119e-10
1.075132314e-10
1.118042527e-10
1.163979425e-10
1.213315062e-10
1.266481879e-10
1.323983305e-10
1.386406263e-10
1.454435894e-10
1.52887293e-10
1.61065416e-10
1.700876564e-10
1.800825753e-10
1.91200951e-10
2.036197324e-10
2.175466992e-10
2.332259569e-10
2.509444142e-10
2.7103942e-10
2.939077654e-10
3.200162978e-10
3.499144324e-10
3.842489017e-10
4.237811427e-10
4.694077935e-10
5.221848539e-10
5.833561637e-10
6.543869718e-10
7.370035013e-10
8.332395822e-10
9.454916115e-10
1.076583323e-09
1.229842117e-09
1.409189003e-09
1.619244584e-09
1.865453928e-09
2.154233684e-09
2.493145395e-09
2.891099644e-09
3.358596516e-09
3.908008771e-09
4.553915314e-09
5.313493813e-09
6.206982899e-09
7.258226202e-09
8.495312567e-09
9.951329343e-09
1.166524847e-08
1.368296855e-08
1.605854001e-08
1.885560508e-08
2.214908962e-08
2.602719012e-08
3.059370642e-08
3.597077876e-08
4.230209771e-08
4.97566663e-08
5.853320634e-08
6.886531519e-08
8.102749586e-08
9.534220121e-08
1.121880543e-07
1.320094295e-07
1.553276038e-07
1.82753718e-07
2.150038124e-07
2.529162389e-07
2.974717798e-07
3.498168379e-07
4.112900952e-07
4.834530643e-07
5.681249807e-07
6.674225004e-07
7.838046663e-07
9.201235934e-07
1.079681285e-06
1.266292923e-06
1.48435687e-06
1.738931468e-06
2.03581854e-06
2.381653195e-06
2.783999287e-06
3.251449437e-06
3.793728145e-06
4.421796025e-06
5.147952727e-06
5.985935635e-06
6.951011032e-06
8.06005411e-06
9.331614099e-06
1.078596083e-05
1.244510939e-05
1.43328202e-05
1.647457261e-05
1.88975113e-05
2.163036615e-05
2.470334734e-05
2.814801913e-05
3.199715642e-05
3.628458973e-05
4.104504413e-05
4.631397847e-05
5.212743092e-05
5.852187659e-05
6.553410219e-05
7.320110435e-05
8.156001088e-05
9.064803493e-05
0.0001005024613
0.0001111606736
0.0001226602369
0.0001350390739
0.0001483358388
0.0001625842788
0.000177841864
0.0001941170356
0.0002115572815
0.0002302126907
0.0002501692418
0.0002710343856
0.0002931380955
0.0003165287254
0.0003412418909
0.0003672782401
0.0003945448007
0.0004227657779
0.0004513752747
0.0004794391852
0.0005057092084
0.0005287411323
0.0005474280069
0.0005597667786
0.0005649012384
0.0005618662673
0.0005498987242
0.0005288669541
0.0004988788177
0.0004607720921
0.0004161971564
0.0003672074316
0.0003161009346
0.0002653122024
0.0002171339188
0.0001734343378
0.0001354531156
0.0001036299175
7.802480674e-05
5.788290284e-05
4.255529517e-05
3.105220947e-05
2.254064719e-05
1.630953657e-05
1.178279795e-05
8.494576989e-06
6.106783441e-06
4.390245353e-06
3.157826473e-06
2.273032616e-06
1.63759433e-06
1.180705822e-06
8.515929539e-07
6.143883027e-07
4.438810202e-07
3.224569406e-07
2.347006171e-07
1.707594595e-07
1.245086514e-07
9.097216019e-08
6.659672491e-08
4.884047562e-08
3.587961086e-08
2.640480073e-08
1.946152488e-08
1.436685187e-08
1.062258678e-08
7.866463783e-09
5.834572705e-09
4.334323918e-09
3.224942939e-09
2.403365935e-09
1.794020557e-09
1.341408445e-09
1.004712106e-09
7.538673137e-10
5.666981644e-10
4.268240248e-10
3.221280543e-10
2.436349396e-10
1.846872791e-10
1.403402623e-10
1.069161506e-10
8.16759114e-11
6.257686757e-11
4.809358897e-11
3.708534793e-11
2.869790616e-11
2.229064781e-11
1.73824498e-11
1.361142163e-11
1.07049242e-11
8.45721615e-12
6.712767153e-12
5.353786212e-12
4.290889032e-12
3.456105649e-12
2.797634903e-12
2.275904239e-12
1.860606089e-12
1.528465682e-12
1.261557339e-12
1.046032552e-12
8.711576022e-13
7.285841395e-13
6.117953478e-13
5.156846089e-13
4.362343138e-13
3.702704775e-13
3.152748269e-13
2.692405384e-13
2.305611906e-13
1.979450376e-13
1.703486311e-13
1.469252563e-13
1.269847408e-13
1.099620158e-13
9.539243114e-14
8.289229951e-14
7.214349855e-14
6.288123575e-14
5.488428456e-14
4.796715964e-14
4.197381896e-14
3.677257283e-14
3.225195105e-14
2.831733347e-14
2.488819158e-14
2.189582109e-14
1.928147081e-14
1.69947926e-14
1.499255268e-14
1.323755645e-14
1.169774851e-14
1.034545689e-14
9.156756543e-15
8.110931812e-15
7.190021162e-15
6.378430769e-15
5.662605698e-15
5.030749521e-15
4.47258473e-15
3.97914763e-15
3.542612425e-15
3.156140092e-15
2.813748343e-15
2.510199565e-15
2.240904117e-15
2.001836761e-15
1.789464368e-15
1.600683282e-15
1.432765004e-15
1.283309039e-15
1.150201907e-15
1.031581491e-15
9.258059851e-16
8.314268366e-16
7.471651322e-16
6.718909858e-16
6.046055234e-16
5.44425128e-16
4.905676488e-16
4.42340322e-16
3.991291814e-16
3.603897687e-16
3.256389792e-16
2.944478974e-16
2.664354992e-16
2.412631119e-16
2.186295377e-16
1.982667579e-16
1.79936147e-16
1.63425134e-16
1.485442554e-16
1.351245533e-16
1.230152773e-16
1.120818513e-16
1.022040765e-16
9.327453988e-17
8.519720568e-17
7.788616661e-17
7.12645372e-17
6.526347211e-17
5.982129477e-17
5.488272378e-17
5.039818555e-17
4.632320334e-17
4.26178539e-17
3.924628403e-17
3.617628017e-17
3.337888506e-17
3.082805617e-17
2.850036114e-17
2.637470615e-17
2.443209348e-17
2.265540516e-17
2.102920958e-17
1.95395888e-17
1.817398406e-17
1.692105767e-17
1.577056938e-17
1.471326572e-17
1.374078087e-17
1.284554786e-17
1.202071894e-17
1.126009422e-17
1.055805758e-17
9.909519165e-18
9.309863811e-18
8.75490461e-18
8.24084126e-18
7.764222587e-18
7.321912836e-18
6.911061351e-18
6.529075271e-18
6.173594949e-18
5.842471804e-18
5.533748358e-18
5.245640245e-18
4.976519975e-18
4.724902289e-18
4.489430938e-18
4.268866743e-18
4.062076811e-18
3.868024784e-18
3.68576203e-18
3.51441967e-18
3.353201364e-18
3.201376786e-18
3.058275712e-18
2.923282661e-18
2.795832046e-18
2.675403769e-18
2.561519236e-18
2.453737731e-18
2.351653128e-18
2.254890912e-18
2.163105461e-18
2.075977584e-18
1.99321228e-18
1.914536698e-18
1.839698283e-18
1.768463087e-18
1.70061423e-18
1.6359505e-18
1.574285071e-18
1.515444341e-18
1.459266869e-18
1.4056024e-18
1.354310982e-18
1.305262154e-18
1.258334206e-18
1.213413498e-18
1.170393845e-18
1.129175947e-18
1.089666867e-18
1.051779556e-18
1.015432416e-18
9.80548897e-19
9.470571317e-19
9.148895943e-19
8.839827908e-19
8.542769726e-19
8.257158741e-19
7.982464695e-19
7.718187504e-19
7.463855195e-19
7.219022014e-19
6.983266668e-19
6.756190714e-19
6.537417061e-19
6.326588586e-19
6.123366862e-19
5.927430967e-19
5.73847639e-19
5.556214015e-19
5.380369175e-19
5.21068078e-19
5.046900498e-19
4.888792003e-19
4.736130268e-19
4.588700915e-19
4.446299598e-19
4.30873144e-19
4.1758105e-19
4.047359277e-19
3.923208249e-19
3.803195439e-19
3.687166013e-19
3.5749719e-19
3.466471434e-19
3.361529028e-19
3.260014857e-19
3.161804568e-19
3.066779003e-19
2.974823944e-19
2.885829865e-19
2.799691709e-19
2.716308669e-19
2.635583985e-19
2.557424754e-19
2.481741751e-19
2.408449253e-19
2.337464884e-19
2.26870946e-19
2.202106845e-19
2.137583817e-19
2.075069934e-19
2.014497417e-19
1.955801033e-19
1.89891798e-19
1.843787791e-19
1.79035223e-19
1.738555197e-19
1.688342643e-19
1.639662478e-19
1.592464499e-19
1.546700306e-19
1.50232323e-19
1.459288267e-19
1.417552005e-19
1.377072568e-19
1.337809548e-19
1.299723951e-19
1.262778143e-19
1.226935795e-19
1.192161833e-19
1.15842239e-19
1.12568476e-19
1.093917355e-19
1.063089659e-19
1.033172195e-19
1.004136478e-19
9.759549844e-20
9.486011124e-20
9.220491507e-20
8.962742447e-20
8.712523653e-20
8.469602794e-20
8.233755211e-20
8.004763634e-20
7.782417929e-20
7.566514833e-20
7.356857718e-20
7.153256349e-20
6.955526668e-20
6.763490567e-20
6.57697569e-20
6.395815224e-20
6.219847712e-20
6.048916866e-20
5.882871388e-20
5.7215648e-20
5.564855279e-20
5.412605499e-20
5.264682477e-20
5.120957425e-20
4.98130561e-20
4.845606215e-20
4.713742208e-20
4.58560022e-20
4.461070418e-20
4.340046386e-20
4.222425016e-20
4.108106395e-20
3.9969937e-20
3.888993101e-20
3.784013654e-20
3.681967214e-20
3.582768341e-20
3.486334211e-20
3.392584531e-20
3.301441459e-20
3.212829524e-20
3.126675544e-20
3.042908564e-20
2.961459773e-20
2.882262443e-20
2.805251857e-20
2.730365247e-20
2.657541734e-20
2.586722263e-20
2.517849552e-20
2.450868032e-20
2.385723792e-20
2.322364528e-20
2.260739493e-20
2.200799447e-20
2.142496613e-20
2.085784626e-20
2.030618494e-20
1.97695455e-20
1.924750419e-20
1.873964968e-20
1.824558279e-20
1.776491599e-20
1.729727312e-20
1.684228903e-20
1.639960924e-20
1.596888958e-20
1.554979594e-20
1.514200389e-20
1.474519846e-20
1.435907379e-20
1.398333287e-20
1.361768729e-20
1.326185696e-20
1.291556986e-20
1.257856181e-20
1.225057622e-20
1.193136387e-20
1.162068269e-20
1.131829756e-20
1.102398004e-20
1.073750826e-20
1.045866664e-20
1.018724578e-20
9.923042217e-21
9.665858267e-21
9.415501868e-21
9.171786382e-21
8.934530479e-21
8.703557943e-21
8.47869754e-21
8.259782856e-21
8.04665218e-21
7.839148339e-21
7.637118578e-21
7.440414439e-21
7.24889162e-21
7.06240986e-21
6.88083283e-21
6.704028003e-21
6.531866548e-21
6.364223234e-21
6.200976309e-21
6.042007418e-21
5.887201484e-21
5.736446627e-21
5.58963408e-21
5.446658077e-21
5.307415777e-21
5.17180719e-21
5.039735079e-21
4.911104899e-21
4.785824694e-21
4.663805054e-21
4.544959013e-21
4.429202008e-21
4.316451789e-21
4.206628356e-21
4.099653908e-21
3.995452765e-21
3.893951322e-21
3.795077984e-21
3.698763112e-21
3.604938948e-21
3.513539594e-21
3.424500946e-21
3.337760629e-21
3.253257971e-21
3.17093394e-21
3.090731108e-21
3.012593597e-21
2.936467046e-21
2.862298563e-21
2.790036685e-21
2.719631328e-21
2.651033765e-21
2.584196579e-21
2.519073632e-21
2.455620027e-21
2.393792066e-21
2.333547225e-21
2.274844124e-21
2.217642483e-21
2.161903113e-21
2.107587865e-21
2.054659614e-21
2.003082221e-21
1.952820513e-21
1.903840248e-21
1.856108107e-21
1.809591654e-21
1.764259309e-21
1.720080338e-21
1.677024811e-21
1.635063601e-21
1.594168354e-21
1.554311459e-21
1.515466041e-21
1.477605931e-21
1.440705649e-21
1.404740392e-21
1.369686006e-21
1.335518972e-21
1.30221639e-21
1.269755964e-21
1.238115976e-21
1.20727528e-21
1.177213283e-21
1.14790993e-21
1.119345687e-21
1.091501529e-21
1.064358925e-21
1.037899829e-21
1.012106653e-21
9.869622754e-22
9.624500066e-22
9.385535899e-22
9.152571839e-22
8.925453532e-22
8.704030619e-22
8.488156451e-22
8.277688134e-22
8.072486428e-22
7.872415546e-22
7.67734308e-22
7.487139968e-22
7.301680323e-22
7.12084133e-22
6.944503143e-22
6.772548861e-22
6.604864364e-22
6.441338278e-22
6.281861738e-22
6.12632851e-22
5.97463473e-22
5.826678916e-22
5.68236182e-22
5.541586354e-22
5.404257549e-22
5.270282378e-22
5.139569763e-22
5.012030393e-22
4.88757672e-22
4.766122862e-22
4.647584483e-22
4.531878727e-22
4.418924204e-22
4.308640841e-22
4.200949845e-22
4.09577364e-22
3.993035834e-22
3.892661232e-22
3.794575732e-22
3.6987064e-22
3.604981492e-22
3.51333049e-22
3.42368425e-22
3.335975036e-22
3.250136757e-22
3.166105088e-22
3.083817583e-22
3.00321375e-22
2.924234991e-22
2.846824004e-22
2.770923919e-22
2.165038912e-22
1.530139792e-22
1.083703135e-22
7.675632581e-23
5.432705248e-23
3.841428953e-23
2.713204072e-23
1.914022732e-23
1.348531695e-23
9.488674012e-24
6.667515824e-24
4.678714934e-24
3.278538316e-24
2.294129885e-24
1.603000363e-24
1.118472737e-24
7.79261072e-25
5.421461635e-25
3.766392501e-25
2.612848704e-25
1.810131502e-25
1.252254122e-25
8.651359209e-26
5.969767316e-26
4.114309694e-26
2.832728692e-26
1.948475056e-26
1.339432934e-26
9.204541358e-27
6.326702094e-27
4.351935959e-27
3.00094963e-27
2.076501437e-27
1.445261096e-27
1.016833169e-27
7.257208411e-28
5.286462697e-28
3.961278467e-28
3.079445321e-28
2.498903286e-28
2.133033365e-28
1.906633664e-28
1.792107624e-28
1.744130883e-28
1.732040458e-28
1.744858581e-28
1.783832678e-28
1.870007901e-28
1.942232704e-28
2.043746332e-28
2.144514099e-28
2.263576951e-28
2.364187453e-28
2.482695552e-28
2.626275783e-28
2.798221667e-28
2.934422166e-28
3.055699817e-28
3.201170414e-28
3.331281406e-28
3.487946784e-28
3.614743542e-28
3.770336449e-28
3.914157934e-28
4.052852579e-28
4.188700204e-28
4.323993593e-28
4.453668296e-28
4.577066952e-28
4.696102385e-28
4.803329918e-28
4.91593892e-28
5.018769657e-28
5.113022256e-28
5.210578969e-28
5.281020298e-28
5.348348339e-28
5.422714525e-28
5.478342596e-28
5.53513281e-28
5.576439876e-28
5.619621747e-28
5.661663003e-28
5.7050971e-28
5.7297424e-28
5.753475629e-28
5.775134405e-28
5.794810994e-28
5.811027086e-28
5.825567705e-28
5.837933175e-28
5.846723064e-28
5.854753333e-28
5.861002567e-28
5.86613366e-28
5.870151933e-28
5.873685659e-28
5.876611525e-28
5.878367991e-28
5.879950109e-28
5.881032173e-28
5.881957155e-28
5.882755464e-28
5.883069575e-28
5.883348895e-28
5.883546027e-28
5.883762835e-28
5.883963106e-28
5.883802248e-28
5.883582168e-28
5.88363331e-28
5.883596368e-28
5.883514701e-28
5.88340982e-28
5.883383114e-28
5.883296283e-28
5.88320361e-28
5.883102839e-28
5.883065586e-28
5.882921918e-28
5.882681895e-28
5.882673904e-28
5.8826154e-28
5.882309587e-28
5.882339145e-28
5.882081462e-28
5.882202936e-28
5.881995504e-28
5.882108725e-28
5.881959998e-28
5.881831869e-28
5.881860499e-28
5.88163413e-28
5.881660183e-28
5.882052587e-28
5.881887032e-28
5.881884331e-28
5.881916816e-28
5.88203489e-28
5.881521926e-28
5.881580137e-28
5.881415796e-28
5.881824297e-28
5.881342269e-28
5.881517335e-28
5.881688421e-28
5.881543311e-28
5.881501673e-28
5.881375054e-28
5.881331761e-28
5.881417162e-28
5.88138602e-28
5.881593274e-28
5.881574605e-28
5.881412323e-28
5.881657905e-28
5.881319892e-28
5.881745475e-28
5.881302238e-28
5.881385738e-28
5.881469841e-28
5.881095013e-28
5.880988111e-28
5.881145322e-28
5.881287842e-28
5.881207012e-28
5.880958959e-28
5.880967708e-28
5.881118931e-28
5.881256965e-28
5.881081982e-28
5.881163735e-28
5.88091143e-28
5.881065018e-28
5.880998672e-28
5.881217892e-28
5.881215419e-28
5.88122797e-28
5.881022871e-28
5.881120788e-28
5.881069699e-28
5.881227482e-28
5.881141922e-28
5.881079296e-28
5.880844479e-28
5.881019614e-28
5.880968383e-28
5.881129131e-28
5.881153657e-28
5.880967471e-28
5.880963146e-28
5.881127084e-28
5.880968847e-28
5.88107001e-28
5.881066313e-28
5.881048079e-28
5.881294969e-28
5.881176157e-28
5.881258116e-28
5.881104561e-28
5.880971362e-28
5.88109841e-28
5.881163914e-28
5.881134355e-28
5.881161204e-28
5.881254905e-28
5.88122237e-28
5.881122997e-28
5.881102091e-28
5.881219017e-28
5.881053206e-28
5.881150481e-28
5.881051683e-28
5.881070778e-28
5.881107601e-28
5.881089502e-28
5.881110416e-28
5.881246653e-28
5.881116158e-28
5.881078665e-28
5.881114497e-28
5.881212362e-28
5.881108028e-28
5.881175643e-28
5.881171081e-28
5.881031324e-28
5.880899996e-28
5.881131772e-28
5.881094392e-28
5.88106611e-28
5.88116851e-28
5.881156314e-28
5.880797961e-28
5.880927728e-28
5.880953882e-28
5.881111513e-28
5.881243873e-28
5.881085191e-28
5.881065313e-28
5.880904946e-28
5.881073752e-28
5.880822508e-28
5.880876614e-28
5.881042751e-28
5.880920037e-28
5.880830393e-28
5.880994582e-28
5.881310026e-28
5.880963487e-28
5.88087311e-28
)
;

boundaryField
{
    inlet
    {
        type            fixedValue;
        value           uniform 0;
    }
    outlet
    {
        type            zeroGradient;
    }
    wall
    {
        type            empty;
    }
}


// ************************************************************************* //
