/*--------------------------------*- C++ -*----------------------------------*\
  =========                 |
  \\      /  F ield         | OpenFOAM: The Open Source CFD Toolbox
   \\    /   O peration     | Website:  https://openfoam.org
    \\  /    A nd           | Version:  7
     \\/     M anipulation  |
\*---------------------------------------------------------------------------*/
FoamFile
{
    version     2.0;
    format      ascii;
    class       volScalarField;
    location    "0.000558243009";
    object      C2H_0;
}
// * * * * * * * * * * * * * * * * * * * * * * * * * * * * * * * * * * * * * //

dimensions      [0 0 0 0 0 0 0];

internalField   nonuniform List<scalar> 
1500
(
4.529296927e-46
4.457725603e-46
3.6616104e-46
3.000605055e-46
2.578749395e-46
2.346686556e-46
2.232416438e-46
2.1815397e-46
2.160946137e-46
2.153220476e-46
2.150348333e-46
2.149089024e-46
2.148302492e-46
2.147655672e-46
2.147083703e-46
2.146589565e-46
2.14618029e-46
2.145853017e-46
2.14559709e-46
2.145399453e-46
2.145248735e-46
2.145136934e-46
2.145059126e-46
2.145012102e-46
2.14499286e-46
2.144997544e-46
2.145021076e-46
2.1450574e-46
2.145100104e-46
2.145143145e-46
2.145181445e-46
2.145211243e-46
2.145230176e-46
2.145237156e-46
2.145232124e-46
2.145215778e-46
2.145189323e-46
2.145154276e-46
2.145112334e-46
2.14506528e-46
2.145014923e-46
2.144963033e-46
2.144911271e-46
2.144861115e-46
2.144813782e-46
2.144770171e-46
2.144730833e-46
2.144695976e-46
2.144665497e-46
2.144639048e-46
2.144616108e-46
2.144596072e-46
2.144578327e-46
2.144562313e-46
2.14454758e-46
2.14453381e-46
2.144520836e-46
2.144508639e-46
2.144497337e-46
2.144487163e-46
2.144478439e-46
2.144471556e-46
2.14446694e-46
2.14446503e-46
2.144466253e-46
2.144470995e-46
2.144479576e-46
2.144492231e-46
2.144509091e-46
2.144530163e-46
2.144555323e-46
2.14458431e-46
2.144616727e-46
2.144652046e-46
2.144689626e-46
2.144728728e-46
2.144768538e-46
2.144808193e-46
2.144846811e-46
2.144883514e-46
2.144917458e-46
2.144947858e-46
2.144974006e-46
2.144995295e-46
2.145011231e-46
2.145021447e-46
2.145025705e-46
2.145023901e-46
2.145016065e-46
2.145002357e-46
2.14498306e-46
2.14495857e-46
2.144929389e-46
2.14489611e-46
2.144859398e-46
2.144819979e-46
2.144778616e-46
2.144736092e-46
2.144693185e-46
2.144650653e-46
2.144609207e-46
2.144569493e-46
2.144532077e-46
2.144497425e-46
2.144465893e-46
2.144437717e-46
2.144413015e-46
2.144391782e-46
2.144373903e-46
2.144359158e-46
2.144347248e-46
2.144337804e-46
2.144330417e-46
2.144324654e-46
2.144320087e-46
2.144316307e-46
2.14431295e-46
2.144309705e-46
2.144306327e-46
2.144302641e-46
2.144298546e-46
2.144294006e-46
2.144289048e-46
2.144283749e-46
2.144278223e-46
2.144272612e-46
2.144267069e-46
2.144261751e-46
2.144256809e-46
2.14425238e-46
2.144248582e-46
2.144245519e-46
2.144243278e-46
2.14424193e-46
2.144241544e-46
2.144242183e-46
2.144243915e-46
2.144246816e-46
2.144250973e-46
2.144256488e-46
2.144263473e-46
2.144272052e-46
2.144282352e-46
2.144294499e-46
2.14430861e-46
2.144324784e-46
2.144343093e-46
2.144363575e-46
2.144386226e-46
2.144410996e-46
2.144437785e-46
2.144466441e-46
2.144496765e-46
2.14452851e-46
2.144561389e-46
2.144595084e-46
2.144629251e-46
2.144663532e-46
2.14469756e-46
2.144730974e-46
2.144763423e-46
2.14479457e-46
2.144824102e-46
2.144851729e-46
2.144877189e-46
2.144900241e-46
2.144920672e-46
2.144938288e-46
2.144952916e-46
2.1449644e-46
2.1449726e-46
2.144977392e-46
2.144978669e-46
2.144976342e-46
2.144970349e-46
2.144960654e-46
2.144947258e-46
2.144930203e-46
2.144909584e-46
2.144885556e-46
2.144858339e-46
2.144828235e-46
2.144795629e-46
2.144760997e-46
2.14472491e-46
2.144688034e-46
2.144651123e-46
2.144615008e-46
2.144580575e-46
2.144548741e-46
2.144520415e-46
2.144496465e-46
2.144477671e-46
2.144464688e-46
2.144458016e-46
2.14445797e-46
2.144464681e-46
2.144478101e-46
2.14449803e-46
2.144524158e-46
2.144556114e-46
2.144593514e-46
2.144636007e-46
2.144683292e-46
2.144735113e-46
2.144791222e-46
2.144851304e-46
2.144914881e-46
2.144981194e-46
2.145049105e-46
2.145117013e-46
2.14518284e-46
2.145244091e-46
2.145298015e-46
2.14534187e-46
2.145373283e-46
2.145390686e-46
2.145393773e-46
2.145383931e-46
2.145364564e-46
2.145341247e-46
2.145321634e-46
2.145315074e-46
2.145331915e-46
2.145382499e-46
2.145475922e-46
2.145618635e-46
2.145813057e-46
2.146056348e-46
2.14633955e-46
2.146647281e-46
2.146958141e-46
2.147245955e-46
2.147481874e-46
2.147637303e-46
2.147687464e-46
2.147615353e-46
2.147415688e-46
2.14709844e-46
2.146691453e-46
2.146241774e-46
2.145815395e-46
2.145495441e-46
2.145379151e-46
2.145574521e-46
2.146197068e-46
2.147365406e-46
2.14918425e-46
2.151678124e-46
2.154562722e-46
2.155671326e-46
2.155938474e-46
2.156209884e-46
2.156488458e-46
2.156774429e-46
2.157067604e-46
2.157367816e-46
2.157675e-46
2.157989174e-46
2.158310424e-46
2.158638884e-46
2.158974718e-46
2.159318122e-46
2.15966931e-46
2.160028519e-46
2.160396004e-46
2.160772038e-46
2.161156912e-46
2.161550934e-46
2.161954432e-46
2.162367755e-46
2.162791269e-46
2.163225362e-46
2.163670444e-46
2.16412695e-46
2.164595336e-46
2.165076086e-46
2.16556971e-46
2.166076747e-46
2.166597766e-46
2.167133367e-46
2.167684183e-46
2.168250884e-46
2.168834173e-46
2.169434797e-46
2.17005354e-46
2.170691229e-46
2.17134874e-46
2.172026994e-46
2.172726961e-46
2.173449666e-46
2.17419619e-46
2.17496767e-46
2.175765306e-46
2.176590361e-46
2.177444169e-46
2.178328131e-46
2.179243725e-46
2.180192509e-46
2.181176119e-46
2.182196283e-46
2.183254817e-46
2.184353631e-46
2.185494739e-46
2.186680257e-46
2.187912414e-46
2.189193551e-46
2.190526135e-46
2.191912758e-46
2.193356145e-46
2.194859163e-46
2.196424826e-46
2.198056301e-46
2.199756918e-46
2.201530178e-46
2.203379756e-46
2.205309519e-46
2.207323527e-46
2.209426045e-46
2.211621555e-46
2.213914766e-46
2.216310623e-46
2.218814319e-46
2.221431311e-46
2.224167327e-46
2.227028385e-46
2.230020805e-46
2.233151222e-46
2.236426605e-46
2.239854273e-46
2.243441911e-46
2.24719759e-46
2.251129786e-46
2.255247399e-46
2.259559778e-46
2.264076742e-46
2.268808603e-46
2.273766195e-46
2.278960896e-46
2.284404662e-46
2.290110052e-46
2.296090266e-46
2.302359171e-46
2.308931346e-46
2.315822111e-46
2.323047574e-46
2.33062467e-46
2.338571206e-46
2.346905911e-46
2.355648487e-46
2.364819661e-46
2.374441241e-46
2.384536183e-46
2.395128648e-46
2.406244076e-46
2.417909258e-46
2.43015241e-46
2.443003261e-46
2.456493136e-46
2.47065505e-46
2.485523811e-46
2.501136118e-46
2.51753068e-46
2.534748331e-46
2.552832158e-46
2.571827633e-46
2.59178276e-46
2.612748224e-46
2.634777553e-46
2.657927291e-46
2.682257178e-46
2.707830343e-46
2.734713514e-46
2.762977228e-46
2.79269607e-46
2.823948911e-46
2.856819175e-46
2.891395105e-46
2.92777006e-46
2.966042823e-46
3.006317923e-46
3.04870598e-46
3.09332407e-46
3.140296107e-46
3.189753244e-46
3.241834304e-46
3.296686225e-46
3.35446453e-46
3.415333824e-46
3.479468315e-46
3.547052356e-46
3.618281021e-46
3.693360697e-46
3.772509717e-46
3.855959008e-46
3.943952776e-46
4.036749216e-46
4.13462125e-46
4.237857301e-46
4.34676209e-46
4.461657465e-46
4.58288326e-46
4.710798183e-46
4.845780737e-46
4.988230163e-46
5.138567422e-46
5.297236191e-46
5.464703904e-46
5.641462802e-46
5.828031021e-46
6.024953699e-46
6.232804109e-46
6.452184808e-46
6.683728814e-46
6.928100799e-46
7.18599829e-46
7.458152903e-46
7.74533157e-46
8.048337789e-46
8.368012882e-46
8.705237251e-46
9.060931642e-46
9.436058417e-46
9.831622812e-46
1.02486742e-45
1.068830734e-45
1.115166363e-45
1.163993234e-45
1.215435182e-45
1.269621071e-45
1.326684916e-45
1.386765993e-45
1.450008959e-45
1.516563962e-45
1.586586752e-45
1.660238789e-45
1.737687345e-45
1.819105609e-45
1.904672788e-45
1.994574202e-45
2.089001382e-45
2.188152161e-45
2.292230769e-45
2.401447922e-45
2.516020912e-45
2.636173694e-45
2.76213698e-45
2.894148325e-45
3.032452221e-45
3.177300191e-45
3.328950884e-45
3.48767018e-45
3.653731296e-45
3.827414902e-45
4.009009239e-45
4.198810256e-45
4.39712175e-45
4.604255526e-45
4.820531565e-45
5.046278215e-45
5.281832397e-45
5.527539836e-45
5.783755316e-45
6.050842956e-45
6.329176522e-45
6.61913977e-45
6.921126824e-45
7.235542592e-45
7.562803227e-45
7.903336633e-45
8.257583025e-45
8.625995535e-45
9.009040893e-45
9.407200153e-45
9.820969506e-45
1.025086116e-44
1.069740429e-44
1.11611461e-44
1.164265296e-44
1.214251165e-44
1.266133068e-44
1.319974182e-44
1.37584016e-44
1.433799311e-44
1.493922781e-44
1.556284758e-44
1.620962688e-44
1.68803751e-44
1.757593911e-44
1.829720604e-44
1.904510615e-44
1.982061613e-44
2.062476244e-44
2.14586251e-44
2.232334164e-44
2.322011141e-44
2.415020023e-44
2.511494537e-44
2.611576094e-44
2.715414368e-44
2.82316792e-44
2.935004873e-44
3.051103638e-44
3.171653697e-44
3.296856446e-44
3.426926117e-44
3.562090762e-44
3.702593341e-44
3.848692907e-44
4.00066595e-44
4.158807929e-44
4.323434914e-44
4.494884083e-44
4.673509256e-44
4.859703629e-44
5.053887265e-44
5.256505808e-44
5.468006964e-44
5.688882328e-44
5.919664956e-44
6.16092834e-44
6.413288385e-44
6.677406652e-44
6.953994102e-44
7.243815224e-44
7.547692905e-44
7.866516053e-44
8.201255021e-44
8.552976981e-44
8.922761158e-44
9.311785281e-44
9.721326846e-44
1.015275364e-43
1.060755013e-43
1.108732032e-43
1.159378506e-43
1.212880071e-43
1.269437268e-43
1.329266827e-43
1.39260305e-43
1.459699365e-43
1.530830036e-43
1.606292056e-43
1.68640725e-43
1.771524594e-43
1.862022797e-43
1.958313164e-43
2.060842788e-43
2.170098116e-43
2.286608932e-43
2.410952831e-43
2.543760241e-43
2.685720089e-43
2.8375862e-43
3.000184551e-43
3.17442151e-43
3.361293223e-43
3.561896346e-43
3.777440344e-43
4.009261631e-43
4.258839872e-43
4.527816853e-43
4.818018366e-43
5.1314797e-43
5.470475409e-43
5.837554203e-43
6.235579969e-43
6.667780183e-43
7.137803225e-43
7.649786495e-43
8.208437644e-43
8.819131838e-43
9.488028645e-43
1.022221309e-42
1.102986656e-42
1.19204748e-42
1.290508218e-42
1.399660386e-42
1.521021108e-42
1.65638089e-42
1.807863168e-42
1.977998927e-42
2.169820716e-42
2.386981768e-42
2.633907792e-42
2.915991529e-42
3.239843611e-42
3.61361795e-42
4.047436355e-42
4.553946008e-42
5.149055835e-42
5.852915071e-42
6.691221601e-42
7.696981766e-42
8.912891735e-42
1.039457938e-41
1.221504422e-41
1.447077506e-41
1.729023062e-41
2.084566876e-41
2.536975013e-41
3.117899367e-41
3.870713076e-41
4.855286059e-41
6.154871042e-41
7.886106178e-41
1.021365683e-40
1.337182014e-40
1.769666961e-40
2.367429361e-40
3.201381924e-40
4.375890073e-40
6.045919771e-40
8.443519578e-40
1.191853146e-39
1.699965601e-39
2.44803459e-39
3.552819357e-39
5.186720524e-39
7.682687783e-39
1.242121972e-38
2.837237321e-38
1.110464941e-37
5.489929307e-37
2.988351066e-36
1.710879954e-35
9.537969838e-35
5.173123819e-34
2.740495507e-33
1.421771268e-32
7.233280806e-32
3.606208488e-31
1.756376322e-30
8.315594866e-30
3.856869789e-29
1.75384754e-28
7.824676955e-28
3.428112117e-27
1.477080409e-26
6.275535073e-26
2.641105226e-25
1.109612157e-24
4.711672998e-24
2.05913073e-23
9.482117277e-23
4.610433941e-22
2.270781633e-21
8.936157801e-21
2.785121262e-20
7.213784289e-20
1.631283354e-19
3.345273975e-19
6.385864264e-19
1.154310627e-18
1.997653667e-18
3.333644683e-18
5.39052465e-18
8.476396005e-18
1.299966416e-17
1.949548459e-17
2.866138747e-17
4.140594671e-17
5.891518328e-17
8.274209591e-17
1.149260615e-16
1.581505413e-16
2.159500602e-16
2.929802518e-16
3.953685352e-16
5.311673622e-16
7.109379549e-16
9.485013593e-16
1.261908462e-15
1.674706107e-15
2.217619042e-15
2.930833947e-15
3.867166719e-15
5.096515952e-15
6.7121423e-15
8.839443527e-15
1.164799206e-14
1.536765101e-14
2.030960468e-14
2.689320982e-14
3.567985044e-14
4.741569965e-14
6.308676564e-14
8.399221231e-14
1.118462169e-13
1.489253764e-13
1.982892268e-13
2.641181871e-13
3.522398384e-13
4.709572625e-13
6.32365185e-13
8.544534651e-13
1.164508075e-12
1.604546957e-12
2.241343452e-12
3.180208671e-12
4.601303381e-12
6.802875854e-12
1.030324158e-11
1.5916606e-11
2.872161949e-11
5.309825718e-11
9.66217781e-11
1.711864034e-10
2.949455437e-10
4.955805203e-10
8.156765023e-10
1.320151421e-09
2.108143624e-09
3.331107244e-09
5.238231346e-09
8.124663527e-09
1.249221934e-08
1.901108889e-08
2.866151063e-08
4.247062726e-08
6.19898549e-08
8.902485442e-08
1.258051654e-07
1.744270776e-07
2.367809266e-07
3.140245289e-07
4.059887047e-07
5.104747034e-07
6.229140397e-07
7.366504937e-07
8.427759884e-07
9.333290053e-07
1.000699037e-06
1.04076138e-06
1.052357477e-06
1.037307525e-06
9.99579807e-07
9.440508095e-07
8.759298728e-07
8.006866574e-07
7.226591452e-07
6.452896828e-07
5.711208827e-07
5.017134821e-07
4.380816996e-07
3.806456783e-07
3.29282265e-07
2.842110944e-07
2.445672366e-07
2.09740161e-07
1.795242655e-07
1.534123624e-07
1.309203173e-07
1.115996026e-07
9.504226978e-08
8.088608383e-08
6.879698529e-08
5.849123357e-08
4.971635586e-08
4.225229861e-08
3.590822865e-08
3.051936427e-08
2.594393768e-08
2.206035677e-08
1.876460476e-08
1.596789423e-08
1.359457591e-08
1.158029326e-08
9.870366146e-09
8.41838438e-09
7.184990246e-09
6.136829279e-09
5.245649292e-09
4.487529076e-09
3.842219796e-09
3.292583837e-09
2.824117538e-09
2.424545922e-09
2.083478978e-09
1.792120485e-09
1.543021551e-09
1.329872164e-09
1.147324982e-09
9.908464581e-10
8.565910912e-10
7.412952379e-10
6.421874565e-10
5.569128084e-10
4.834689446e-10
4.201521338e-10
3.655116792e-10
3.183114088e-10
2.774971327e-10
2.421691323e-10
2.115588936e-10
1.850094213e-10
1.619585731e-10
1.419249451e-10
1.244959086e-10
1.093174659e-10
9.608564239e-11
8.453917694e-11
7.445331118e-11
6.563450821e-11
5.791595846e-11
5.115375245e-11
4.522361889e-11
4.001814255e-11
3.544438917e-11
3.142187646e-11
2.788083907e-11
2.476074383e-11
2.200901801e-11
1.957995912e-11
1.743379946e-11
1.55359029e-11
1.385607433e-11
1.236796575e-11
1.104856476e-11
9.877753787e-12
8.837929862e-12
7.913676313e-12
7.091479094e-12
6.359481404e-12
5.707271263e-12
5.125697453e-12
4.606709878e-12
4.143220999e-12
3.728985445e-12
3.358495317e-12
3.026889077e-12
2.729872171e-12
2.463647826e-12
2.224856659e-12
2.010523935e-12
1.818013463e-12
1.644987262e-12
1.489370242e-12
1.349319255e-12
1.223195951e-12
1.109542954e-12
1.007062924e-12
9.146001631e-13
8.311244182e-13
7.557166247e-13
6.875563418e-13
6.259106707e-13
5.701244738e-13
5.196117366e-13
4.738479308e-13
4.323632606e-13
3.947366826e-13
3.605906095e-13
3.295862146e-13
3.014192664e-13
2.758164309e-13
2.525319873e-13
2.313449075e-13
2.120562596e-13
1.944868956e-13
1.784753924e-13
1.638762168e-13
1.505580885e-13
1.3840252e-13
1.273025119e-13
1.171613878e-13
1.078917525e-13
9.941456015e-14
9.165827955e-14
8.455814745e-14
7.805549869e-14
7.209716589e-14
6.663494074e-14
6.162509043e-14
5.702792336e-14
5.280739879e-14
4.89307759e-14
4.5368298e-14
4.209290837e-14
3.907999428e-14
3.630715637e-14
3.375400069e-14
3.140195117e-14
2.923408041e-14
2.723495682e-14
2.53905066e-14
2.3687889e-14
2.211538349e-14
2.066228776e-14
1.931882532e-14
1.807606191e-14
1.692582977e-14
1.586065891e-14
1.487371498e-14
1.395874268e-14
1.311001466e-14
1.232228488e-14
1.159074646e-14
1.091099323e-14
1.027898485e-14
9.691015123e-15
9.143683064e-15
8.633866669e-15
8.158698988e-15
7.715546335e-15
7.301988445e-15
6.91580038e-15
6.554936033e-15
6.217513076e-15
5.901799237e-15
5.606199759e-15
5.32924596e-15
5.069584777e-15
4.825969214e-15
4.59724961e-15
4.382365653e-15
4.18033908e-15
3.990266993e-15
3.811315745e-15
3.642715336e-15
3.483754291e-15
3.333774955e-15
3.192169193e-15
3.05837444e-15
2.931870083e-15
2.812174141e-15
2.698840216e-15
2.591454702e-15
2.489634217e-15
2.393023242e-15
2.301291964e-15
2.214134277e-15
2.131265962e-15
2.052423e-15
1.977360031e-15
1.905848925e-15
1.837677481e-15
1.772648218e-15
1.710577269e-15
1.651293356e-15
1.594636854e-15
1.540458922e-15
1.488620704e-15
1.438992592e-15
1.391453549e-15
1.345890483e-15
1.302197665e-15
1.2602762e-15
1.220033534e-15
1.181382995e-15
1.14424338e-15
1.10853856e-15
1.074197128e-15
1.04115206e-15
1.009340417e-15
9.787030522e-16
9.491843567e-16
9.207320118e-16
8.932967661e-16
8.66832226e-16
8.412946647e-16
8.166428413e-16
7.928378371e-16
7.698429002e-16
7.476233044e-16
7.261462163e-16
7.053805726e-16
6.852969664e-16
6.658675414e-16
6.470658935e-16
6.288669795e-16
6.112470321e-16
5.941834809e-16
5.776548792e-16
5.616408351e-16
5.461219481e-16
5.310797497e-16
5.164966481e-16
5.023558768e-16
4.886414465e-16
4.753381001e-16
4.624312711e-16
4.499070445e-16
4.3775212e-16
4.259537783e-16
4.144998485e-16
4.033786791e-16
3.925791097e-16
3.820904451e-16
3.719024305e-16
3.620052285e-16
3.523893977e-16
3.430458731e-16
3.339659459e-16
3.251412467e-16
3.165637286e-16
3.082256514e-16
3.001195669e-16
2.922383049e-16
2.845749599e-16
2.771228792e-16
2.698756511e-16
2.628270936e-16
2.559712444e-16
2.493023516e-16
2.428148633e-16
2.365034198e-16
2.303628451e-16
2.243881391e-16
2.185744702e-16
2.12917168e-16
2.074117173e-16
2.020537513e-16
1.968390457e-16
1.917635133e-16
1.868231981e-16
1.820142708e-16
1.773330236e-16
1.727758653e-16
1.683393176e-16
1.6402001e-16
1.598146765e-16
1.557201515e-16
1.517333662e-16
1.478513451e-16
1.440712027e-16
1.403901401e-16
1.368054423e-16
1.333144752e-16
1.299146826e-16
1.266035839e-16
1.233787712e-16
1.202379068e-16
1.171787215e-16
1.141990116e-16
1.112966369e-16
1.084695191e-16
1.057156391e-16
1.030330357e-16
1.004198034e-16
9.787409078e-17
9.539409873e-17
9.29780787e-17
9.062433136e-17
8.833120484e-17
8.609709353e-17
8.392043643e-17
8.179971597e-17
7.973345663e-17
7.772022343e-17
7.575862113e-17
7.384729264e-17
7.198491825e-17
7.017021442e-17
6.840193248e-17
6.66788578e-17
6.499980885e-17
6.336363603e-17
6.176922106e-17
6.021547571e-17
5.870134119e-17
5.722578721e-17
5.578781121e-17
5.438643747e-17
5.302071652e-17
5.168972418e-17
5.039256096e-17
4.91283515e-17
4.789624364e-17
4.669540801e-17
4.55250371e-17
4.438434492e-17
4.327256625e-17
4.218895615e-17
4.113278935e-17
4.01033598e-17
3.909998003e-17
3.812198064e-17
3.716870982e-17
3.623953295e-17
3.533383203e-17
3.445100532e-17
3.359046675e-17
3.275164559e-17
3.193398613e-17
3.11369471e-17
3.03600015e-17
2.960263591e-17
2.886435029e-17
2.814465766e-17
2.744308372e-17
2.675916647e-17
2.60924559e-17
2.544251374e-17
2.480891308e-17
2.419123805e-17
2.358908354e-17
2.30020549e-17
2.242976776e-17
2.187184757e-17
2.132792945e-17
2.079765802e-17
2.028068703e-17
1.977667913e-17
1.928530572e-17
1.88062466e-17
1.833918981e-17
1.788383139e-17
1.743987532e-17
1.700703302e-17
1.658502339e-17
1.617357256e-17
1.577241357e-17
1.538128643e-17
1.499993775e-17
1.462812067e-17
1.426559454e-17
1.391212499e-17
1.356748355e-17
1.323144761e-17
1.290380027e-17
1.258433014e-17
1.227283121e-17
1.19691028e-17
1.167294926e-17
1.138417994e-17
1.110260906e-17
1.082805556e-17
1.0560343e-17
1.02992994e-17
1.004475716e-17
9.796552985e-18
9.554527692e-18
9.318526096e-18
9.088397033e-18
8.863993111e-18
8.645170739e-18
8.431789885e-18
8.223714143e-18
8.020810473e-18
7.822949297e-18
7.630004274e-18
7.441852233e-18
7.258373162e-18
7.079450045e-18
6.904968864e-18
6.73481849e-18
6.568890605e-18
6.407079534e-18
6.249282361e-18
6.095398782e-18
5.945330936e-18
5.798983496e-18
5.656263495e-18
5.517080354e-18
5.381345724e-18
5.248973536e-18
5.119879873e-18
4.993982945e-18
4.871202968e-18
4.751462193e-18
4.63468483e-18
4.520797011e-18
4.409726717e-18
4.301403715e-18
4.195759541e-18
4.092727457e-18
3.992242371e-18
3.894240889e-18
3.798661177e-18
3.705442964e-18
3.614527464e-18
3.525857371e-18
3.439376795e-18
3.355031293e-18
3.272767782e-18
3.19253446e-18
3.114280864e-18
3.037957725e-18
2.963517075e-18
2.890912138e-18
2.820097269e-18
2.751028e-18
2.683660952e-18
2.61795382e-18
2.553865371e-18
2.491355399e-18
2.430384672e-18
2.370914953e-18
2.312908973e-18
2.256330344e-18
2.201143609e-18
2.147314191e-18
2.09480836e-18
2.04359322e-18
1.993636678e-18
1.944907449e-18
1.897375026e-18
1.851009614e-18
1.8057822e-18
1.761664446e-18
1.718628716e-18
1.676648044e-18
1.635696122e-18
1.595747319e-18
1.556776556e-18
1.518759383e-18
1.481671971e-18
1.445491038e-18
1.410193848e-18
1.375758241e-18
1.342162577e-18
1.309385715e-18
1.277406993e-18
1.246206267e-18
1.215763847e-18
1.186060521e-18
1.157077454e-18
1.128796306e-18
1.101199119e-18
1.074268358e-18
1.047986874e-18
1.022337895e-18
9.973050462e-19
9.728722792e-19
9.490239276e-19
9.257446291e-19
9.030193731e-19
8.808334781e-19
8.59172561e-19
8.380225369e-19
8.173696505e-19
7.97200424e-19
7.775016619e-19
7.582604491e-19
7.39464155e-19
7.211004594e-19
7.031572978e-19
6.856229053e-19
6.684858142e-19
6.517348397e-19
6.353591237e-19
6.193480731e-19
6.036914187e-19
5.883791788e-19
5.734016388e-19
5.58749301e-19
5.444128745e-19
5.303830787e-19
5.166505327e-19
4.07227974e-19
2.873366401e-19
2.033038528e-19
1.440555681e-19
1.021101308e-19
7.235568834e-20
5.123492166e-20
3.624531034e-20
2.561458728e-20
1.808282539e-20
1.275287123e-20
8.986370585e-21
6.328180214e-21
4.45494662e-21
3.136992747e-21
2.211230236e-21
1.561879074e-21
1.107391464e-21
7.899058475e-22
5.685607056e-22
4.147224558e-22
3.079870767e-22
2.34258418e-22
1.836496604e-22
1.491269784e-22
1.258553977e-22
1.103971994e-22
1.004227177e-22
9.427013555e-23
9.081332912e-23
8.926097642e-23
8.908923911e-23
8.990132774e-23
9.145527512e-23
9.3582248e-23
9.614972633e-23
9.908334164e-23
1.023328206e-22
1.058626334e-22
1.096474019e-22
1.136795488e-22
1.179421334e-22
1.224319219e-22
1.271395664e-22
1.320486763e-22
1.371527054e-22
1.424512008e-22
1.479446155e-22
1.536084319e-22
1.594437723e-22
1.654257255e-22
1.715415114e-22
1.777554464e-22
1.840776178e-22
1.904792387e-22
1.969220789e-22
2.033649646e-22
2.097991014e-22
2.162095589e-22
2.225531403e-22
2.288158075e-22
2.349496992e-22
2.409590102e-22
2.467996163e-22
2.524466137e-22
2.578867858e-22
2.631016429e-22
2.680741917e-22
2.727918249e-22
2.772463982e-22
2.814281629e-22
2.853415166e-22
2.889795524e-22
2.923452859e-22
2.95445982e-22
2.982770166e-22
3.008581099e-22
3.032015378e-22
3.053134169e-22
3.072113924e-22
3.089006515e-22
3.10404283e-22
3.117372486e-22
3.129139441e-22
3.139375448e-22
3.148316626e-22
3.156082295e-22
3.162797472e-22
3.168569521e-22
3.173503257e-22
3.177697488e-22
3.181241164e-22
3.184218327e-22
3.186704473e-22
3.188760556e-22
3.190444069e-22
3.191806207e-22
3.192891118e-22
3.193732046e-22
3.194368058e-22
3.194826608e-22
3.19513358e-22
3.19531282e-22
3.195381972e-22
3.195360604e-22
3.19526505e-22
3.195110216e-22
3.194907417e-22
3.194666735e-22
3.194401608e-22
3.194121183e-22
3.19383295e-22
3.193544581e-22
3.193262275e-22
3.192990905e-22
3.192733897e-22
3.192495011e-22
3.192274963e-22
3.192076922e-22
3.191900866e-22
3.191743845e-22
3.191608937e-22
3.191489936e-22
3.191387085e-22
3.191299267e-22
3.191221044e-22
3.191152348e-22
3.19108864e-22
3.191029658e-22
3.190970151e-22
3.190910664e-22
3.190849469e-22
3.190785191e-22
3.190716796e-22
3.190646563e-22
3.190568128e-22
3.190486999e-22
3.190401913e-22
3.190314527e-22
3.190221926e-22
3.19012977e-22
3.190037007e-22
3.189945649e-22
3.189853235e-22
3.189765769e-22
3.189681755e-22
3.189599821e-22
3.189522231e-22
3.189448435e-22
3.18937943e-22
3.18931604e-22
3.189256736e-22
3.189202069e-22
3.189149961e-22
3.189100177e-22
3.189057222e-22
3.189014481e-22
3.188976662e-22
3.188938538e-22
3.188903737e-22
3.188870662e-22
3.18883827e-22
3.188807156e-22
3.188779205e-22
3.188751047e-22
3.188723884e-22
3.188697381e-22
3.188671914e-22
3.188646729e-22
3.188623003e-22
3.188598803e-22
3.188577248e-22
3.188554976e-22
3.188535702e-22
3.188516286e-22
3.188498573e-22
3.188481773e-22
3.188466013e-22
3.188450723e-22
3.188437662e-22
3.188425765e-22
3.188415886e-22
3.18840698e-22
3.188399744e-22
3.188393803e-22
3.188390375e-22
3.188388432e-22
3.188389681e-22
3.188391217e-22
3.188393522e-22
3.188398469e-22
3.188405646e-22
3.188413267e-22
3.188422863e-22
3.188433203e-22
3.18844534e-22
3.188459053e-22
3.188471769e-22
3.188485677e-22
3.18849864e-22
3.188511871e-22
3.188526346e-22
3.188540469e-22
3.188553342e-22
3.188565236e-22
3.188577945e-22
3.188588776e-22
3.188597307e-22
3.188605679e-22
3.188613925e-22
3.188618317e-22
3.188622279e-22
3.188624433e-22
3.188626476e-22
3.188625675e-22
3.188623221e-22
3.188620866e-22
3.18861725e-22
3.188610353e-22
3.188602284e-22
3.188593892e-22
3.188585244e-22
3.188574303e-22
3.188562822e-22
3.188550757e-22
3.188536438e-22
3.188522394e-22
3.188509543e-22
3.188494217e-22
3.188479488e-22
3.188464672e-22
3.188449807e-22
3.188432558e-22
3.188419813e-22
3.188403995e-22
3.188390206e-22
3.188377742e-22
3.188363096e-22
3.188349794e-22
3.188335707e-22
3.188324396e-22
3.1883122e-22
3.188301418e-22
3.188293011e-22
3.188282304e-22
3.188272838e-22
3.188265712e-22
3.188259898e-22
3.188251952e-22
3.188246947e-22
)
;

boundaryField
{
    inlet
    {
        type            fixedValue;
        value           uniform 0;
    }
    outlet
    {
        type            zeroGradient;
    }
    wall
    {
        type            empty;
    }
}


// ************************************************************************* //
