/*--------------------------------*- C++ -*----------------------------------*\
  =========                 |
  \\      /  F ield         | OpenFOAM: The Open Source CFD Toolbox
   \\    /   O peration     | Website:  https://openfoam.org
    \\  /    A nd           | Version:  7
     \\/     M anipulation  |
\*---------------------------------------------------------------------------*/
FoamFile
{
    version     2.0;
    format      ascii;
    class       volScalarField;
    location    "0.000558243009";
    object      C3H2;
}
// * * * * * * * * * * * * * * * * * * * * * * * * * * * * * * * * * * * * * //

dimensions      [0 0 0 0 0 0 0];

internalField   nonuniform List<scalar> 
1500
(
8.073701581e-57
6.13106636e-57
5.433080257e-57
5.040035828e-57
4.813114902e-57
4.69305546e-57
4.634044539e-57
4.607047226e-57
4.59555084e-57
4.590848318e-57
4.588772315e-57
4.587558918e-57
4.586581982e-57
4.585682572e-57
4.584859941e-57
4.584143215e-57
4.583548731e-57
4.58307374e-57
4.582703045e-57
4.582417718e-57
4.582201198e-57
4.582041826e-57
4.581932373e-57
4.581868102e-57
4.58184456e-57
4.581856081e-57
4.581895177e-57
4.581952968e-57
4.582020039e-57
4.582087513e-57
4.582147908e-57
4.582195659e-57
4.582227237e-57
4.582240969e-57
4.582236689e-57
4.582215312e-57
4.58217852e-57
4.582128489e-57
4.582067616e-57
4.581998488e-57
4.581923719e-57
4.581845917e-57
4.581767519e-57
4.581690735e-57
4.58161741e-57
4.581548948e-57
4.581486245e-57
4.581429735e-57
4.581379388e-57
4.581334809e-57
4.581295384e-57
4.581260342e-57
4.581228906e-57
4.581200366e-57
4.581174162e-57
4.581149909e-57
4.581127426e-57
4.581106721e-57
4.581088023e-57
4.581071659e-57
4.581058127e-57
4.58104797e-57
4.581041803e-57
4.581040223e-57
4.581043818e-57
4.581053098e-57
4.581068485e-57
4.581090247e-57
4.581118535e-57
4.581153282e-57
4.581194252e-57
4.581241006e-57
4.581292905e-57
4.581349127e-57
4.581408695e-57
4.581470471e-57
4.581533231e-57
4.581595687e-57
4.581656515e-57
4.581714397e-57
4.581768078e-57
4.581816394e-57
4.581858281e-57
4.581892809e-57
4.581919267e-57
4.581937067e-57
4.581945849e-57
4.581945423e-57
4.581935817e-57
4.581917224e-57
4.581890041e-57
4.58185484e-57
4.581812303e-57
4.581763309e-57
4.581708782e-57
4.581649803e-57
4.581587481e-57
4.581522954e-57
4.581457366e-57
4.581391854e-57
4.581327464e-57
4.581265184e-57
4.581205879e-57
4.581150259e-57
4.581098886e-57
4.581052164e-57
4.581010324e-57
4.580973417e-57
4.580941317e-57
4.580913777e-57
4.580890416e-57
4.580870745e-57
4.580854232e-57
4.580840293e-57
4.580828354e-57
4.580817867e-57
4.580808331e-57
4.580799343e-57
4.580790574e-57
4.580781802e-57
4.580772897e-57
4.580763829e-57
4.58075464e-57
4.580745461e-57
4.580736471e-57
4.580727859e-57
4.580719849e-57
4.580712663e-57
4.580706511e-57
4.580701561e-57
4.580697967e-57
4.580695859e-57
4.580695343e-57
4.580696484e-57
4.580699352e-57
4.580704001e-57
4.580710504e-57
4.580718927e-57
4.580729377e-57
4.580741949e-57
4.580756786e-57
4.580774025e-57
4.580793828e-57
4.58081634e-57
4.580841699e-57
4.580870017e-57
4.580901385e-57
4.580935827e-57
4.580973323e-57
4.581013768e-57
4.581057008e-57
4.581102818e-57
4.581150899e-57
4.581200889e-57
4.581252369e-57
4.58130488e-57
4.581357923e-57
4.581410996e-57
4.581463586e-57
4.581515169e-57
4.581565253e-57
4.581613368e-57
4.581659074e-57
4.581701959e-57
4.581741653e-57
4.581777818e-57
4.58181014e-57
4.58183833e-57
4.581862143e-57
4.581881334e-57
4.581895693e-57
4.581905017e-57
4.581909125e-57
4.581907871e-57
4.581901139e-57
4.581888865e-57
4.581871003e-57
4.581847617e-57
4.581818829e-57
4.581784822e-57
4.58174594e-57
4.581702573e-57
4.581655319e-57
4.581604843e-57
4.581551979e-57
4.581497699e-57
4.581443098e-57
4.581389392e-57
4.581337855e-57
4.581289841e-57
4.581246655e-57
4.58120958e-57
4.581179744e-57
4.581158107e-57
4.581145411e-57
4.581142109e-57
4.581148417e-57
4.58116426e-57
4.581189383e-57
4.581223323e-57
4.581265556e-57
4.581315522e-57
4.581372716e-57
4.581436695e-57
4.581507085e-57
4.581583544e-57
4.581665612e-57
4.58175265e-57
4.581843594e-57
4.581936864e-57
4.58203022e-57
4.582120753e-57
4.582204935e-57
4.582278863e-57
4.582338637e-57
4.582380821e-57
4.582403124e-57
4.582404991e-57
4.582388273e-57
4.582357671e-57
4.582320999e-57
4.582289076e-57
4.582275178e-57
4.582294114e-57
4.582360805e-57
4.582488523e-57
4.582686921e-57
4.582960017e-57
4.583304423e-57
4.583708052e-57
4.584149641e-57
4.584599188e-57
4.585019676e-57
4.585369912e-57
4.585608678e-57
4.585699682e-57
4.585617281e-57
4.585352129e-57
4.584916464e-57
4.584348354e-57
4.583714666e-57
4.58311286e-57
4.582672727e-57
4.582560303e-57
4.582987304e-57
4.584227823e-57
4.586634977e-57
4.590617864e-57
4.596458188e-57
4.603626847e-57
4.606245215e-57
4.606970666e-57
4.607719617e-57
4.608491615e-57
4.609287012e-57
4.610106387e-57
4.610950462e-57
4.611820093e-57
4.612716239e-57
4.613639959e-57
4.614592385e-57
4.615574702e-57
4.616588166e-57
4.617634084e-57
4.618713837e-57
4.619828869e-57
4.620980709e-57
4.622170944e-57
4.623401252e-57
4.624673394e-57
4.625989218e-57
4.627350675e-57
4.628759799e-57
4.630218734e-57
4.631729743e-57
4.633295201e-57
4.634917587e-57
4.636599535e-57
4.638343794e-57
4.640153268e-57
4.642030997e-57
4.643980187e-57
4.646004205e-57
4.648106599e-57
4.65029109e-57
4.652561603e-57
4.654922256e-57
4.657377379e-57
4.659931535e-57
4.662589511e-57
4.665356353e-57
4.668237368e-57
4.671238121e-57
4.674364475e-57
4.677622598e-57
4.681018971e-57
4.684560416e-57
4.688254105e-57
4.692107577e-57
4.696128752e-57
4.700325974e-57
4.704708013e-57
4.709284067e-57
4.71406385e-57
4.71905755e-57
4.724275879e-57
4.729730108e-57
4.735432092e-57
4.741394287e-57
4.747629802e-57
4.754152416e-57
4.760976623e-57
4.76811766e-57
4.775591554e-57
4.783415165e-57
4.791606231e-57
4.80018339e-57
4.809166267e-57
4.818575503e-57
4.828432808e-57
4.838761037e-57
4.849584226e-57
4.860927674e-57
4.872818019e-57
4.885283291e-57
4.898352995e-57
4.912058204e-57
4.926431647e-57
4.941507787e-57
4.957322923e-57
4.97391532e-57
4.991325284e-57
5.009595312e-57
5.028770205e-57
5.048897207e-57
5.07002614e-57
5.092209587e-57
5.115503035e-57
5.13996505e-57
5.165657477e-57
5.192645658e-57
5.220998608e-57
5.250789286e-57
5.282094827e-57
5.314996823e-57
5.349581577e-57
5.385940491e-57
5.424170303e-57
5.464373498e-57
5.506658683e-57
5.551141013e-57
5.597942617e-57
5.647193094e-57
5.699030023e-57
5.75359952e-57
5.811056844e-57
5.871567058e-57
5.935305735e-57
6.002459672e-57
6.073227785e-57
6.147821946e-57
6.226467953e-57
6.309406567e-57
6.396894659e-57
6.489206407e-57
6.58663463e-57
6.689492197e-57
6.79811361e-57
6.912856642e-57
7.034104212e-57
7.162266328e-57
7.297782224e-57
7.441122733e-57
7.592792758e-57
7.753334062e-57
7.923328232e-57
8.10339991e-57
8.294220304e-57
8.496511046e-57
8.711048286e-57
8.938667224e-57
9.180267032e-57
9.436816153e-57
9.709358068e-57
9.999017644e-57
1.03070079e-56
1.063463747e-56
1.098331868e-56
1.135457627e-56
1.175005694e-56
1.217153973e-56
1.262094724e-56
1.310035779e-56
1.361201874e-56
1.415836087e-56
1.474201396e-56
1.536582379e-56
1.603287052e-56
1.674648864e-56
1.75102886e-56
1.832818026e-56
1.920439836e-56
2.014352998e-56
2.115054444e-56
2.223082553e-56
2.33902065e-56
2.46350079e-56
2.597207832e-56
2.740883881e-56
2.895333036e-56
3.061426567e-56
3.240108477e-56
3.432401509e-56
3.639413621e-56
3.86234497e-56
4.102495452e-56
4.361272787e-56
4.640201266e-56
4.940931112e-56
5.265248609e-56
5.615086939e-56
5.99253783e-56
6.399864108e-56
6.839513121e-56
7.314131168e-56
7.826578953e-56
8.379948194e-56
8.977579315e-56
9.623080568e-56
1.032034832e-55
1.107358889e-55
1.188734179e-55
1.276650478e-55
1.371636042e-55
1.474260454e-55
1.58513767e-55
1.704929269e-55
1.83434792e-55
1.974161084e-55
2.125194977e-55
2.288338776e-55
2.464549135e-55
2.654854976e-55
2.86036264e-55
3.08226133e-55
3.321828966e-55
3.580438407e-55
3.859564126e-55
4.160789284e-55
4.485813321e-55
4.836460057e-55
5.214686349e-55
5.622591352e-55
6.062426361e-55
6.536605447e-55
7.047716769e-55
7.598534687e-55
8.192032728e-55
8.831397576e-55
9.52004395e-55
1.02616307e-54
1.106007794e-54
1.19195857e-54
1.28446537e-54
1.384010291e-54
1.491109855e-54
1.606317509e-54
1.7302263e-54
1.863471791e-54
2.006735189e-54
2.160746743e-54
2.326289404e-54
2.50420282e-54
2.695387649e-54
2.900810223e-54
3.121507659e-54
3.358593365e-54
3.613263065e-54
3.886801342e-54
4.180588765e-54
4.496109671e-54
4.834960647e-54
5.198859781e-54
5.58965682e-54
6.009344213e-54
6.460069206e-54
6.944147165e-54
7.464076108e-54
8.022552588e-54
8.622489268e-54
9.267034159e-54
9.959591666e-54
1.070384592e-53
1.150378632e-53
1.236373579e-53
1.32883818e-53
1.428281068e-53
1.535254565e-53
1.650358872e-53
1.774246706e-53
1.907628457e-53
2.051277912e-53
2.206038611e-53
2.372830945e-53
2.552660083e-53
2.746624831e-53
2.955927634e-53
3.181885793e-53
3.425944208e-53
3.689689867e-53
3.974868452e-53
4.28340352e-53
4.617418778e-53
4.979263711e-53
5.371543171e-53
5.797155213e-53
6.259335337e-53
6.761709109e-53
7.308362439e-53
7.903926701e-53
8.553687155e-53
9.263722979e-53
1.004109042e-52
1.089406432e-52
1.183246022e-52
1.286806695e-52
1.401523319e-52
1.529166803e-52
1.671953816e-52
1.832696832e-52
2.015014039e-52
2.223619794e-52
2.464728954e-52
2.746621174e-52
3.080431355e-52
3.48125854e-52
3.969723057e-52
4.574156729e-52
5.333687447e-52
6.302588492e-52
7.556417682e-52
9.200691093e-52
1.138314944e-51
1.431112012e-51
1.827611298e-51
2.368869255e-51
3.112796129e-51
4.141183393e-51
5.569692132e-51
7.562062012e-51
1.035034157e-50
1.426371709e-50
1.976963221e-50
2.753249363e-50
3.849756625e-50
5.401098806e-50
7.599163785e-50
1.071775319e-49
1.514794777e-49
2.144892877e-49
3.042110298e-49
4.321145908e-49
6.146557394e-49
8.754724241e-49
1.248562994e-48
1.782892682e-48
2.549081307e-48
3.649129432e-48
5.230589146e-48
7.50724964e-48
1.078939225e-47
1.55281323e-47
2.238054554e-47
3.230553108e-47
4.670524036e-47
6.763422067e-47
9.810944756e-47
1.425710648e-46
2.075688594e-46
3.027877804e-46
4.425841396e-46
6.48293258e-46
9.517059644e-46
1.400321524e-45
2.065309042e-45
3.053611819e-45
4.52641051e-45
6.7273804e-45
1.002608918e-44
1.498488921e-44
2.246241249e-44
3.377432732e-44
5.094406383e-44
7.709553955e-44
1.170710721e-43
1.784081662e-43
2.728911713e-43
4.190287548e-43
6.46030579e-43
1.000225516e-42
1.555479076e-42
2.430200152e-42
3.815268823e-42
6.020172456e-42
9.549677759e-42
1.52320095e-41
2.443439926e-41
3.942764541e-41
6.400615416e-41
1.045481823e-40
1.718381647e-40
2.842142157e-40
4.730295184e-40
7.921696215e-40
1.334704444e-39
2.262132256e-39
3.855914386e-39
6.608578933e-39
1.138524435e-38
1.971075977e-38
3.428140424e-38
5.987881816e-38
1.050057275e-37
1.84819133e-37
3.263994901e-37
5.782321248e-37
1.027295481e-36
1.82990782e-36
3.26750385e-36
5.847698182e-36
1.0487972e-35
1.885135319e-35
3.396608692e-35
6.138911051e-35
1.114327429e-34
2.033701339e-34
3.719300945e-34
6.652197228e-34
1.045930939e-33
7.2661843e-34
0
0
1.656609913e-32
1.197807427e-31
4.812709505e-32
1.93082829e-31
1.153201664e-31
1.474420848e-31
7.648699854e-31
1.602483384e-30
2.225542718e-30
4.003543858e-30
7.816731085e-30
1.552830704e-29
3.09617492e-29
6.169635651e-29
1.22449487e-28
2.408614447e-28
4.647145458e-28
8.56353312e-28
1.38561191e-27
1.223743786e-27
0
0
0
0
0
1.035911566e-30
9.434730237e-30
4.868052556e-29
2.465594993e-28
1.205245723e-27
5.688011249e-27
2.59753088e-26
1.150047483e-25
4.944583275e-25
2.067433807e-24
8.418107895e-24
3.342350621e-23
1.295674833e-22
4.909725718e-22
1.820427968e-21
6.609565544e-21
2.350935442e-20
8.192177256e-20
2.795814676e-19
9.338681066e-19
3.050317341e-18
9.732963682e-18
3.030653161e-17
9.200304854e-17
2.720761487e-16
7.833039076e-16
2.194524275e-15
5.981749851e-15
1.586296478e-14
4.093306513e-14
1.027944214e-13
2.514302413e-13
5.987887387e-13
1.392106304e-12
3.159076854e-12
7.004578876e-12
1.476627247e-11
2.993696825e-11
5.878106205e-11
1.118611754e-10
2.062349053e-10
3.684823976e-10
6.393413234e-10
1.083076689e-09
1.80428968e-09
2.974128022e-09
4.867331955e-09
7.957641849e-09
1.280659649e-08
2.040083919e-08
3.207685825e-08
4.988598995e-08
7.595569263e-08
1.137414036e-07
1.674046681e-07
2.427609278e-07
3.444634115e-07
4.786064005e-07
6.494110313e-07
8.578212663e-07
1.098720496e-06
1.359370305e-06
1.621304932e-06
1.856143727e-06
2.04181123e-06
2.15995383e-06
2.204462173e-06
2.178913378e-06
2.094380021e-06
1.96578349e-06
1.806864498e-06
1.631372862e-06
1.451880667e-06
1.276913101e-06
1.112176378e-06
9.609819291e-07
8.247902953e-07
7.040193793e-07
5.982728436e-07
5.063446687e-07
4.285057245e-07
3.618041831e-07
3.042898128e-07
2.556192519e-07
2.145640798e-07
1.800103168e-07
1.509769791e-07
1.266137436e-07
1.062117473e-07
8.910705292e-08
7.478977038e-08
6.281021346e-08
5.278837772e-08
4.440407027e-08
3.738819311e-08
3.151509943e-08
2.659593939e-08
2.247290861e-08
1.90143101e-08
1.61103403e-08
1.366951192e-08
1.161563146e-08
9.885255495e-09
8.425557026e-09
7.192540337e-09
6.149551751e-09
5.266038777e-09
4.516518056e-09
3.879718014e-09
3.337867198e-09
2.876103913e-09
2.481986641e-09
2.145088121e-09
1.856658758e-09
1.609347468e-09
1.396970079e-09
1.214317085e-09
1.056993956e-09
9.21288416e-10
8.040600232e-10
7.026482275e-10
6.147957388e-10
5.385845853e-10
4.723827015e-10
4.147992595e-10
3.646472662e-10
3.209122054e-10
2.827257126e-10
2.493434472e-10
2.201264661e-10
1.945255241e-10
1.720678227e-10
1.523458097e-10
1.350076987e-10
1.19749434e-10
1.063078698e-10
9.445497282e-11
8.399288771e-11
7.474973069e-11
6.657599933e-11
5.934150385e-11
5.293274059e-11
4.725064093e-11
4.220863946e-11
3.773101382e-11
3.375145629e-11
3.021184309e-11
2.706117279e-11
2.425464934e-11
2.175288913e-11
1.95212345e-11
1.752915859e-11
1.574974893e-11
1.415925875e-11
1.273671667e-11
1.146358696e-11
1.032347328e-11
9.30186025e-12
8.38588768e-12
7.564153214e-12
6.826539562e-12
6.164063173e-12
5.568741537e-12
5.033476723e-12
4.551953078e-12
4.118547273e-12
3.72824916e-12
3.376592062e-12
3.059591335e-12
2.773690169e-12
2.515711745e-12
2.282816964e-12
2.072467076e-12
1.882390615e-12
1.710554123e-12
1.555136209e-12
1.414504552e-12
1.287195501e-12
1.171895954e-12
1.067427269e-12
9.727309597e-13
8.86855972e-13
8.089473595e-13
7.382361996e-13
6.740306085e-13
6.157077295e-13
5.62706587e-13
5.145217082e-13
4.706974264e-13
4.308227915e-13
3.945270198e-13
3.614754239e-13
3.313657705e-13
3.039250191e-13
2.789064003e-13
2.560867975e-13
2.352643988e-13
2.162565905e-13
1.988980665e-13
1.830391301e-13
1.68544169e-13
1.552902838e-13
1.431660555e-13
1.320704364e-13
1.219117515e-13
1.126067996e-13
1.040800439e-13
9.626288244e-14
8.909298948e-14
8.25137228e-14
7.647358801e-14
7.092575527e-14
6.582762282e-14
6.114042273e-14
5.682886454e-14
5.286081312e-14
4.920699728e-14
4.584074618e-14
4.273775073e-14
3.987584755e-14
3.723482334e-14
3.479623758e-14
3.254326189e-14
3.046053431e-14
2.853402726e-14
2.675092761e-14
2.509952796e-14
2.356912788e-14
2.214994421e-14
2.083302967e-14
1.961019881e-14
1.847396079e-14
1.741745818e-14
1.643441138e-14
1.551906805e-14
1.466615705e-14
1.387084657e-14
1.3128706e-14
1.243567119e-14
1.178801283e-14
1.118230763e-14
1.061541206e-14
1.008443839e-14
9.586732925e-15
9.11985603e-15
8.681564017e-15
8.269792568e-15
7.882641616e-15
7.518361543e-15
7.175340581e-15
6.852093303e-15
6.547250109e-15
6.259547622e-15
5.987819906e-15
5.730990443e-15
5.488064795e-15
5.258123892e-15
5.04031789e-15
4.833860557e-15
4.638024128e-15
4.452134598e-15
4.275567412e-15
4.107743518e-15
3.948125747e-15
3.796215496e-15
3.651549696e-15
3.513698018e-15
3.382260322e-15
3.256864311e-15
3.137163379e-15
3.022834636e-15
2.913577095e-15
2.809110005e-15
2.709171321e-15
2.6135163e-15
2.521916203e-15
2.434157109e-15
2.350038821e-15
2.269373856e-15
2.191986524e-15
2.117712068e-15
2.046395883e-15
1.977892785e-15
1.912066351e-15
1.848788297e-15
1.787937911e-15
1.729401529e-15
1.673072049e-15
1.618848486e-15
1.566635555e-15
1.516343293e-15
1.4678867e-15
1.421185416e-15
1.376163417e-15
1.332748732e-15
1.290873186e-15
1.250472156e-15
1.211484352e-15
1.173851603e-15
1.13751867e-15
1.102433063e-15
1.068544876e-15
1.035806635e-15
1.004173149e-15
9.736013785e-16
9.440503109e-16
9.154808435e-16
8.878556755e-16
8.611392057e-16
8.352974388e-16
8.10297897e-16
7.861095366e-16
7.62702672e-16
7.400489022e-16
7.181210439e-16
6.968930678e-16
6.763400391e-16
6.564380617e-16
6.371642258e-16
6.184965587e-16
6.004139787e-16
5.828962513e-16
5.659239485e-16
5.494784101e-16
5.335417075e-16
5.180966093e-16
5.031265492e-16
4.886155951e-16
4.745484207e-16
4.609102782e-16
4.476869722e-16
4.348648357e-16
4.224307069e-16
4.103719072e-16
3.986762209e-16
3.873318748e-16
3.763275202e-16
3.656522152e-16
3.552954073e-16
3.452469178e-16
3.354969267e-16
3.26035958e-16
3.168548658e-16
3.079448217e-16
2.992973015e-16
2.909040741e-16
2.827571896e-16
2.748489685e-16
2.671719915e-16
2.597190895e-16
2.524833342e-16
2.45458029e-16
2.386367003e-16
2.320130894e-16
2.255811443e-16
2.193350126e-16
2.132690335e-16
2.073777318e-16
2.016558101e-16
1.960981435e-16
1.906997727e-16
1.854558986e-16
1.803618761e-16
1.754132093e-16
1.70605546e-16
1.659346725e-16
1.613965092e-16
1.569871056e-16
1.527026363e-16
1.485393961e-16
1.444937967e-16
1.405623618e-16
1.367417241e-16
1.330286215e-16
1.29419893e-16
1.259124759e-16
1.225034026e-16
1.191897967e-16
1.15968871e-16
1.128379236e-16
1.097943357e-16
1.068355689e-16
1.03959162e-16
1.011627291e-16
9.844395685e-17
9.580060223e-17
9.323049013e-17
9.073151129e-17
8.830162014e-17
8.593883276e-17
8.36412249e-17
8.140693011e-17
7.923413788e-17
7.712109185e-17
7.506608816e-17
7.306747373e-17
7.112364465e-17
6.923304472e-17
6.739416385e-17
6.560553671e-17
6.386574128e-17
6.21733975e-17
6.052716601e-17
5.892574683e-17
5.736787819e-17
5.585233532e-17
5.437792934e-17
5.294350612e-17
5.154794523e-17
5.019015892e-17
4.886909109e-17
4.758371636e-17
4.633303912e-17
4.51160926e-17
4.393193803e-17
4.277966379e-17
4.165838454e-17
4.05672405e-17
3.950539664e-17
3.84720419e-17
3.746638855e-17
3.648767142e-17
3.553514728e-17
3.460809413e-17
3.37058106e-17
3.282761534e-17
3.197284639e-17
3.114086065e-17
3.033103328e-17
2.954275718e-17
2.877544247e-17
2.802851597e-17
2.73014207e-17
2.659361543e-17
2.590457418e-17
2.523378582e-17
2.458075358e-17
2.394499468e-17
2.33260399e-17
2.272343315e-17
2.213673117e-17
2.156550306e-17
2.100932999e-17
2.046780484e-17
1.994053181e-17
1.942712618e-17
1.892721389e-17
1.844043132e-17
1.796642493e-17
1.7504851e-17
1.705537532e-17
1.661767296e-17
1.619142797e-17
1.577633312e-17
1.537208967e-17
1.497840713e-17
1.4595003e-17
1.422160255e-17
1.385793862e-17
1.350375139e-17
1.315878814e-17
1.282280312e-17
1.249555729e-17
1.217681815e-17
1.186635956e-17
1.156396156e-17
1.12694102e-17
1.098249734e-17
1.070302053e-17
1.043078281e-17
1.01655926e-17
9.907263515e-18
9.655614217e-18
9.410468295e-18
9.171654119e-18
8.939004702e-18
8.712357573e-18
8.491554653e-18
8.276442131e-18
8.066870345e-18
7.862693667e-18
7.663770391e-18
7.469962625e-18
7.281136184e-18
7.097160488e-18
6.917908463e-18
6.743256442e-18
6.573084074e-18
6.407274229e-18
6.245712913e-18
6.088289179e-18
5.934895044e-18
5.785425407e-18
5.639777971e-18
5.497853167e-18
5.359554075e-18
5.224786357e-18
5.093458181e-18
4.965480157e-18
4.840765268e-18
4.719228805e-18
4.600788306e-18
4.485363491e-18
4.372876209e-18
4.263250372e-18
4.156411906e-18
4.052288691e-18
3.950810512e-18
3.851909004e-18
3.755517605e-18
3.661571504e-18
3.570007595e-18
3.480764431e-18
3.39378218e-18
3.309002577e-18
3.226368888e-18
3.145825863e-18
3.067319698e-18
2.990797997e-18
2.916209732e-18
2.843505207e-18
2.772636021e-18
2.703555033e-18
2.636216329e-18
2.570575188e-18
2.50658805e-18
2.444212481e-18
2.383407148e-18
2.324131785e-18
2.266347164e-18
2.21001507e-18
2.155098266e-18
2.101560474e-18
2.049366344e-18
1.998481427e-18
1.948872156e-18
1.900505812e-18
1.853350509e-18
1.807375164e-18
1.762549478e-18
1.71884391e-18
1.676229659e-18
1.634678638e-18
1.594163456e-18
1.554657396e-18
1.516134393e-18
1.478569017e-18
1.441936453e-18
1.406212477e-18
1.371373444e-18
1.337396262e-18
1.30425838e-18
1.271937766e-18
1.24041289e-18
1.209662705e-18
1.179666633e-18
1.150404545e-18
1.121856746e-18
1.094003956e-18
1.066827299e-18
1.040308281e-18
1.01442878e-18
9.891710287e-19
9.645176006e-19
9.40451398e-19
9.169556387e-19
8.940138443e-19
8.716098298e-19
8.497276945e-19
8.283518135e-19
8.074668306e-19
7.870576521e-19
7.671094418e-19
7.47607615e-19
7.285378335e-19
7.098859982e-19
6.916382416e-19
6.737809156e-19
6.56300584e-19
6.391840183e-19
6.224182092e-19
6.059904255e-19
5.89888368e-19
4.613990332e-19
3.257792887e-19
2.303853197e-19
1.629927385e-19
1.152699861e-19
8.145289005e-20
5.749513944e-20
4.053465818e-20
2.853990467e-20
2.006696123e-20
1.40894279e-20
9.87805772e-21
6.91517019e-21
4.833660712e-21
3.373511911e-21
2.35078949e-21
1.635554565e-21
1.136141323e-21
7.879774367e-22
5.456438383e-22
3.772425745e-22
2.604065952e-22
1.794770696e-22
1.235092821e-22
8.486601469e-23
5.822689687e-23
3.989175961e-23
2.72915774e-23
1.864567744e-23
1.272190198e-23
8.669069178e-24
5.90015743e-24
4.010988602e-24
2.723727994e-24
1.847693577e-24
1.252221216e-24
8.479093157e-25
5.736785163e-25
3.878584275e-25
2.620588387e-25
1.769625647e-25
1.19442111e-25
8.0586742e-26
5.435459112e-26
3.665315912e-26
2.471294372e-26
1.666133544e-26
1.123312363e-26
7.574052712e-27
5.107673584e-27
3.445189114e-27
2.324471855e-27
1.568848551e-27
1.059268763e-27
7.155193569e-28
4.835571495e-28
3.26970137e-28
2.212226094e-28
1.497778691e-28
1.014869688e-28
6.883187674e-29
4.674016256e-29
3.178909635e-29
2.166697295e-29
1.481187506e-29
1.016854291e-29
7.023078644e-30
4.892414659e-30
3.449513669e-30
2.472881217e-30
1.812328434e-30
1.366156242e-30
1.065306269e-30
8.629187557e-31
7.272101491e-31
6.364280466e-31
5.761501864e-31
5.36446969e-31
5.105543368e-31
4.939634587e-31
4.833320788e-31
4.768356676e-31
4.730786283e-31
4.711578506e-31
4.7013173e-31
4.698255363e-31
4.699512514e-31
4.703132771e-31
4.708041746e-31
4.71308659e-31
4.717971031e-31
4.722506254e-31
4.726505283e-31
4.730172549e-31
4.733291924e-31
4.735903456e-31
4.738091386e-31
4.739910609e-31
4.741230251e-31
4.742267254e-31
4.743020931e-31
4.743517339e-31
4.743809304e-31
4.743892496e-31
4.743826351e-31
4.743646314e-31
4.743391083e-31
4.743039929e-31
4.742554004e-31
4.742081264e-31
4.741574823e-31
4.74104389e-31
4.740522604e-31
4.740035618e-31
4.73956578e-31
4.739107852e-31
4.738695025e-31
4.738269381e-31
4.737919741e-31
4.737633566e-31
4.737316361e-31
4.737123296e-31
4.736884107e-31
4.736685511e-31
4.736556932e-31
4.736398099e-31
4.736281881e-31
4.736160579e-31
4.736083738e-31
4.735958687e-31
4.735835009e-31
4.735721011e-31
4.735612275e-31
4.735492445e-31
4.735425022e-31
4.735265653e-31
4.735133537e-31
4.734973556e-31
4.734849356e-31
4.734653541e-31
4.73447594e-31
4.734318706e-31
4.734144958e-31
4.733949746e-31
4.733797328e-31
4.733669301e-31
4.73351078e-31
4.733376463e-31
4.733230805e-31
4.733110523e-31
4.733016059e-31
4.732933227e-31
4.732858833e-31
4.732753576e-31
4.732622389e-31
4.732564092e-31
4.732466915e-31
4.732425219e-31
4.732338198e-31
4.73226934e-31
4.732212718e-31
4.732149188e-31
4.732081093e-31
4.732051862e-31
4.731998048e-31
4.731947088e-31
4.731921451e-31
4.731872213e-31
4.731804541e-31
4.731764179e-31
4.73170561e-31
4.7316782e-31
4.731621167e-31
4.731609538e-31
4.731575871e-31
4.731546665e-31
4.731535138e-31
4.731515088e-31
4.731457735e-31
4.731435663e-31
4.731412992e-31
4.731407029e-31
4.731371519e-31
4.731351007e-31
4.731338467e-31
4.731335015e-31
4.731326281e-31
4.731367537e-31
4.731347585e-31
4.731331866e-31
4.731345906e-31
4.731361162e-31
4.73137129e-31
4.731399083e-31
4.731400576e-31
4.731444481e-31
4.731514306e-31
4.731518847e-31
4.731549619e-31
4.731543533e-31
4.731549509e-31
4.731591713e-31
4.731626512e-31
4.731637139e-31
4.731636339e-31
4.731696628e-31
4.731724399e-31
4.731697783e-31
4.731713608e-31
4.731772801e-31
4.731747986e-31
4.731739298e-31
4.731733813e-31
4.73175547e-31
4.731757101e-31
4.731726482e-31
4.73173604e-31
4.731758248e-31
4.731727973e-31
4.731692331e-31
4.73168802e-31
4.731683691e-31
4.73166498e-31
4.731643271e-31
4.731634976e-31
4.731576573e-31
4.731552806e-31
4.73156343e-31
4.731512797e-31
4.731486059e-31
4.731461233e-31
4.731439391e-31
4.731371483e-31
4.731418562e-31
4.73133177e-31
4.731319676e-31
4.7313525e-31
4.731289882e-31
4.731262601e-31
4.731201857e-31
4.731191931e-31
4.731162441e-31
4.731137575e-31
4.731187047e-31
4.73111612e-31
4.731088227e-31
4.731094232e-31
4.731120277e-31
4.731074432e-31
4.731046134e-31
)
;

boundaryField
{
    inlet
    {
        type            fixedValue;
        value           uniform 0;
    }
    outlet
    {
        type            zeroGradient;
    }
    wall
    {
        type            empty;
    }
}


// ************************************************************************* //
