/*--------------------------------*- C++ -*----------------------------------*\
  =========                 |
  \\      /  F ield         | OpenFOAM: The Open Source CFD Toolbox
   \\    /   O peration     | Website:  https://openfoam.org
    \\  /    A nd           | Version:  7
     \\/     M anipulation  |
\*---------------------------------------------------------------------------*/
FoamFile
{
    version     2.0;
    format      ascii;
    class       volScalarField;
    location    "0.000558243009";
    object      C3H2_0;
}
// * * * * * * * * * * * * * * * * * * * * * * * * * * * * * * * * * * * * * //

dimensions      [0 0 0 0 0 0 0];

internalField   nonuniform List<scalar> 
1500
(
8.075396877e-57
6.130912591e-57
5.432749876e-57
5.039764072e-57
4.812938158e-57
4.692952749e-57
4.63398999e-57
4.60702183e-57
4.595542611e-57
4.590850429e-57
4.588781314e-57
4.587573173e-57
4.586600694e-57
4.585705229e-57
4.584886073e-57
4.584172296e-57
4.583580158e-57
4.583106851e-57
4.582737144e-57
4.582452089e-57
4.582235157e-57
4.5820747e-57
4.581963552e-57
4.581897043e-57
4.581870794e-57
4.58187919e-57
4.581914854e-57
4.58196897e-57
4.582032206e-57
4.582095773e-57
4.582152267e-57
4.582196192e-57
4.58222409e-57
4.582234352e-57
4.582226857e-57
4.582202574e-57
4.582163244e-57
4.582111044e-57
4.582048428e-57
4.581978008e-57
4.581902413e-57
4.581824247e-57
4.581745976e-57
4.581669793e-57
4.581597562e-57
4.581530632e-57
4.581469906e-57
4.581415768e-57
4.581368142e-57
4.581326607e-57
4.581290473e-57
4.581258933e-57
4.58123113e-57
4.581206297e-57
4.581183815e-57
4.581163226e-57
4.581144299e-57
4.581126986e-57
4.581111443e-57
4.581097987e-57
4.58108704e-57
4.581079138e-57
4.581074849e-57
4.58107477e-57
4.581079467e-57
4.581089439e-57
4.581105113e-57
4.581126774e-57
4.581154586e-57
4.581188496e-57
4.5812283e-57
4.581273577e-57
4.581323736e-57
4.581377977e-57
4.581435358e-57
4.581494777e-57
4.581555052e-57
4.581614912e-57
4.581673074e-57
4.581728256e-57
4.581779218e-57
4.581824818e-57
4.581864013e-57
4.581895907e-57
4.581919785e-57
4.581935086e-57
4.581941448e-57
4.581938709e-57
4.581926898e-57
4.581906239e-57
4.581877119e-57
4.581840126e-57
4.581795955e-57
4.581745493e-57
4.581689683e-57
4.581629617e-57
4.581566403e-57
4.581501198e-57
4.581435162e-57
4.581369418e-57
4.581305036e-57
4.581243004e-57
4.581184166e-57
4.58112926e-57
4.581078833e-57
4.581033279e-57
4.58099282e-57
4.580957497e-57
4.580927179e-57
4.580901596e-57
4.580880347e-57
4.580862931e-57
4.58084879e-57
4.580837327e-57
4.580827946e-57
4.58082007e-57
4.580813194e-57
4.580806884e-57
4.580800789e-57
4.580794659e-57
4.580788361e-57
4.580781839e-57
4.580775116e-57
4.580768302e-57
4.580761552e-57
4.580755056e-57
4.580749018e-57
4.580743639e-57
4.580739114e-57
4.580735617e-57
4.580733287e-57
4.580732246e-57
4.580732585e-57
4.580734384e-57
4.580737697e-57
4.580742606e-57
4.580749159e-57
4.580757446e-57
4.580767572e-57
4.580779642e-57
4.580793802e-57
4.580810214e-57
4.580829037e-57
4.580850442e-57
4.580874573e-57
4.580901567e-57
4.580931518e-57
4.580964476e-57
4.58100043e-57
4.581039295e-57
4.581080945e-57
4.581125141e-57
4.581171632e-57
4.581220049e-57
4.581269992e-57
4.581321011e-57
4.581372632e-57
4.581424344e-57
4.581475634e-57
4.581525985e-57
4.581574912e-57
4.581621925e-57
4.581666588e-57
4.581708475e-57
4.58174721e-57
4.581782432e-57
4.581813829e-57
4.581841097e-57
4.581863968e-57
4.58188221e-57
4.581895576e-57
4.581903888e-57
4.581906938e-57
4.581904592e-57
4.581896734e-57
4.581883294e-57
4.581864245e-57
4.581839664e-57
4.581809659e-57
4.581774456e-57
4.581734369e-57
4.581689843e-57
4.581641439e-57
4.581589859e-57
4.581535933e-57
4.581480638e-57
4.581425079e-57
4.581370452e-57
4.581318058e-57
4.581269239e-57
4.581225309e-57
4.58118754e-57
4.581157071e-57
4.581134871e-57
4.581121669e-57
4.581117944e-57
4.581123902e-57
4.5811395e-57
4.581164452e-57
4.581198337e-57
4.581240617e-57
4.58129075e-57
4.581348221e-57
4.581412605e-57
4.581483526e-57
4.581560617e-57
4.581643456e-57
4.581731355e-57
4.581823262e-57
4.581917572e-57
4.582012045e-57
4.582103732e-57
4.582189098e-57
4.58226423e-57
4.582325189e-57
4.582368562e-57
4.582392027e-57
4.582395046e-57
4.582379475e-57
4.582350032e-57
4.582314572e-57
4.582283906e-57
4.582271357e-57
4.582291753e-57
4.58236001e-57
4.582489412e-57
4.582689558e-57
4.582964435e-57
4.583310572e-57
4.583715795e-57
4.584158721e-57
4.584609261e-57
4.585030261e-57
4.585380472e-57
4.585618618e-57
4.585708456e-57
4.585624425e-57
4.585357345e-57
4.58491972e-57
4.584349964e-57
4.583715342e-57
4.583113746e-57
4.582675406e-57
4.582566806e-57
4.583000048e-57
4.584249548e-57
4.586668751e-57
4.590667026e-57
4.596526117e-57
4.603715758e-57
4.606343434e-57
4.607070594e-57
4.607821288e-57
4.608595072e-57
4.609392272e-57
4.610213456e-57
4.611059347e-57
4.611930806e-57
4.612828815e-57
4.613754433e-57
4.614708792e-57
4.615693086e-57
4.616708565e-57
4.617756541e-57
4.618838399e-57
4.619955589e-57
4.621109633e-57
4.622302125e-57
4.623534748e-57
4.624809265e-57
4.626127524e-57
4.627491477e-57
4.628903166e-57
4.630364748e-57
4.631878476e-57
4.633446738e-57
4.635072011e-57
4.636756936e-57
4.638504273e-57
4.640316922e-57
4.642197932e-57
4.644150514e-57
4.646178047e-57
4.648284086e-57
4.65047235e-57
4.652746777e-57
4.655111488e-57
4.657570829e-57
4.660129373e-57
4.662791913e-57
4.6655635e-57
4.668449451e-57
4.67145535e-57
4.674587065e-57
4.677850786e-57
4.681252997e-57
4.684800535e-57
4.688500589e-57
4.692360709e-57
4.696388836e-57
4.700593331e-57
4.704982976e-57
4.709566994e-57
4.714355112e-57
4.719357542e-57
4.724585023e-57
4.730048847e-57
4.735760888e-57
4.741733637e-57
4.74798022e-57
4.754514455e-57
4.761350856e-57
4.768504699e-57
4.775992038e-57
4.783829781e-57
4.792035689e-57
4.800628455e-57
4.809627735e-57
4.81905422e-57
4.828929667e-57
4.839276969e-57
4.850120234e-57
4.861484803e-57
4.873397373e-57
4.885886037e-57
4.898980368e-57
4.912711509e-57
4.927112263e-57
4.94221717e-57
4.958062606e-57
4.974686925e-57
4.992130526e-57
5.010436008e-57
5.029648278e-57
5.049814672e-57
5.070985153e-57
5.09321242e-57
5.116552085e-57
5.141062861e-57
5.166806741e-57
5.193849219e-57
5.222259489e-57
5.252110686e-57
5.283480139e-57
5.316449634e-57
5.351105716e-57
5.387539989e-57
5.425849459e-57
5.466136874e-57
5.508511126e-57
5.553087674e-57
5.599988962e-57
5.649344941e-57
5.701293553e-57
5.75598133e-57
5.81356395e-57
5.874206942e-57
5.938086361e-57
6.005389541e-57
6.076315961e-57
6.1510781e-57
6.229902424e-57
6.313030397e-57
6.400719653e-57
6.493245194e-57
6.590900711e-57
6.694000034e-57
6.80287869e-57
6.917895576e-57
7.039434806e-57
7.167907673e-57
7.303754826e-57
7.447448601e-57
7.599495546e-57
7.760439213e-57
7.930863074e-57
8.111393882e-57
8.302705089e-57
8.505520769e-57
8.720619713e-57
8.948840004e-57
9.19108391e-57
9.44832327e-57
9.721605231e-57
1.001205864e-56
1.032090084e-56
1.064944516e-56
1.099910903e-56
1.137142272e-56
1.176803896e-56
1.219074334e-56
1.264146556e-56
1.312229169e-56
1.36354775e-56
1.418346286e-56
1.476888751e-56
1.539460804e-56
1.606371635e-56
1.677955967e-56
1.754576232e-56
1.836624926e-56
1.924527157e-56
2.01874342e-56
2.119772579e-56
2.228155119e-56
2.344476644e-56
2.46937169e-56
2.603527814e-56
2.747690041e-56
2.902665643e-56
3.069329341e-56
3.248628873e-56
3.441591028e-56
3.64932816e-56
3.873045195e-56
4.114047182e-56
4.373747437e-56
4.653676298e-56
4.95549054e-56
5.280983544e-56
5.632096141e-56
6.010928358e-56
6.419752009e-56
6.861024102e-56
7.337401397e-56
7.851755867e-56
8.407191407e-56
9.007061617e-56
9.654988878e-56
1.035488484e-55
1.111097222e-55
1.192780831e-55
1.281030987e-55
1.376377997e-55
1.479393652e-55
1.590694276e-55
1.710943996e-55
1.840858218e-55
1.981207343e-55
2.132820739e-55
2.296590968e-55
2.473478318e-55
2.664515594e-55
2.870813314e-55
3.093565152e-55
3.334053819e-55
3.593657302e-55
3.87385557e-55
4.176237656e-55
4.502509303e-55
4.854501066e-55
5.234177006e-55
5.643643975e-55
6.085161528e-55
6.561152567e-55
7.074214666e-55
7.627132289e-55
8.222889745e-55
8.864685272e-55
9.555945951e-55
1.030034383e-54
1.110181317e-54
1.196456912e-54
1.289312766e-54
1.389232703e-54
1.496735107e-54
1.612375412e-54
1.736748808e-54
1.870493135e-54
2.014292063e-54
2.168878465e-54
2.335038126e-54
2.513613731e-54
2.705509197e-54
2.911694375e-54
3.133210148e-54
3.371173998e-54
3.626786032e-54
3.901335547e-54
4.196208214e-54
4.512893871e-54
4.852995043e-54
5.218236246e-54
5.610474173e-54
6.031708781e-54
6.484095498e-54
6.969958514e-54
7.491805418e-54
8.052343211e-54
8.654495881e-54
9.301423713e-54
9.996544542e-54
1.074355708e-53
1.154646666e-53
1.240961356e-53
1.33377042e-53
1.433584567e-53
1.540958388e-53
1.656494558e-53
1.780848515e-53
1.914733633e-53
2.058926964e-53
2.214275647e-53
2.381704019e-53
2.562221595e-53
2.756931973e-53
2.967042876e-53
3.193877429e-53
3.438886975e-53
3.703665637e-53
3.989966995e-53
4.299723407e-53
4.635068687e-53
4.998364293e-53
5.392225979e-53
5.819564544e-53
6.283630271e-53
6.788066299e-53
7.336978572e-53
7.935021165e-53
8.587505266e-53
9.300540195e-53
1.00812174e-52
1.093785343e-52
1.18803136e-52
1.292044699e-52
1.407267567e-52
1.535479851e-52
1.678909323e-52
1.840383317e-52
2.023539214e-52
2.233116545e-52
2.475363884e-52
2.758605518e-52
3.094036405e-52
3.49683784e-52
3.987743205e-52
4.595240554e-52
5.358674694e-52
6.332621399e-52
7.593061751e-52
9.246105923e-52
1.144033052e-51
1.43842416e-51
1.837101409e-51
2.381356844e-51
3.129434516e-51
4.163599428e-51
5.600185201e-51
7.603887598e-51
1.040811567e-50
1.434399353e-50
1.988172729e-50
2.768966503e-50
3.871869978e-50
5.432301296e-50
7.643298865e-50
1.078031145e-49
1.523677998e-49
2.157527066e-49
3.060104976e-49
4.346808887e-49
6.183201006e-49
8.807107287e-49
1.256059663e-48
1.793633141e-48
2.564485974e-48
3.671248196e-48
5.262384039e-48
7.553006292e-48
1.085531994e-47
1.562324038e-47
2.251792589e-47
3.250423854e-47
4.699305435e-47
6.805171103e-47
9.871597079e-47
1.434536282e-46
2.088552547e-46
3.046660875e-46
4.453317632e-46
6.52320255e-46
9.576198799e-46
1.409024655e-45
2.07814474e-45
3.072585201e-45
4.55452238e-45
6.769133978e-45
1.008826144e-44
1.507770871e-44
2.260136432e-44
3.398292827e-44
5.125814453e-44
7.75698787e-44
1.177897135e-43
1.795005298e-43
2.745573251e-43
4.21579229e-43
6.499494005e-43
1.006270503e-42
1.564842223e-42
2.444765439e-42
3.838029067e-42
6.055906935e-42
9.606060056e-42
1.532142941e-41
2.457697565e-41
3.965623904e-41
6.437475206e-41
1.051460039e-40
1.728135141e-40
2.858150292e-40
4.756726317e-40
7.965596353e-40
1.342038599e-39
2.274455002e-39
3.876733174e-39
6.643937704e-39
1.144560043e-38
1.981427472e-38
3.445973014e-38
6.018729201e-38
1.055413739e-37
1.857525028e-37
3.280310357e-37
5.810919964e-37
1.032319707e-36
1.83874648e-36
3.283048254e-36
5.874942003e-36
1.053533608e-35
1.893304783e-35
3.411218867e-35
6.172382652e-35
1.127681379e-34
2.112172851e-34
4.20981413e-34
9.558902626e-34
2.63794055e-33
8.662112147e-33
3.0221781e-32
9.058053385e-32
5.426221491e-32
5.929929041e-32
4.305383977e-32
1.795537684e-31
5.050681286e-31
3.343847367e-31
2.399607131e-30
3.875186318e-30
2.615552817e-30
4.089986957e-30
7.874572567e-30
1.562057083e-29
3.114796063e-29
6.216487744e-29
1.239855948e-28
2.468807098e-28
4.896496366e-28
9.581485028e-28
1.789803196e-27
2.875972498e-27
1.905268764e-27
1.989752133e-27
7.636671743e-28
2.374256008e-28
6.751383062e-29
1.857527788e-29
7.000702359e-30
1.669663536e-29
9.993504413e-29
5.940460569e-28
3.320475919e-27
1.756671454e-26
8.850498581e-26
4.264970389e-25
1.971860893e-24
8.766569017e-24
3.754205414e-23
1.550689512e-22
6.184870874e-22
2.384247394e-21
8.891279785e-21
3.210149741e-20
1.122996575e-19
3.809435444e-19
1.254013623e-18
4.008900847e-18
1.245489736e-17
3.76307017e-17
1.106394721e-16
3.167406502e-16
8.834193388e-16
2.401757356e-15
6.368125232e-15
1.647532196e-14
4.161251054e-14
1.026425667e-13
2.475597796e-13
5.834171207e-13
1.348643163e-12
3.056293558e-12
6.715547429e-12
1.417680927e-11
2.872228832e-11
5.639768136e-11
1.073799862e-10
1.980756985e-10
3.539756805e-10
6.140386456e-10
1.039518686e-09
1.729978172e-09
2.849033497e-09
4.661031521e-09
7.618054085e-09
1.227722348e-08
1.959952325e-08
3.090703771e-08
4.819760572e-08
7.365356644e-08
1.106985494e-07
1.635334309e-07
2.375249669e-07
3.383288143e-07
4.716179183e-07
6.416971951e-07
8.495787979e-07
1.090468795e-06
1.351952755e-06
1.614529279e-06
1.852039674e-06
2.041933527e-06
2.165505111e-06
2.215729703e-06
2.195221347e-06
2.114301531e-06
1.987383261e-06
1.828913464e-06
1.652419137e-06
1.470905615e-06
1.293254197e-06
1.125554004e-06
9.71516117e-07
8.329399091e-07
7.103300552e-07
6.032071955e-07
5.103329699e-07
4.31307371e-07
3.636896406e-07
3.057814422e-07
2.568079055e-07
2.155069523e-07
1.807533821e-07
1.515612847e-07
1.270759312e-07
1.065688131e-07
8.939674389e-08
7.503045808e-08
6.301517037e-08
5.296684439e-08
4.456227624e-08
3.753022927e-08
3.164360778e-08
2.671262722e-08
2.257891289e-08
1.911044355e-08
1.619724842e-08
1.374776725e-08
1.168578492e-08
9.947859714e-09
8.481172678e-09
7.241733267e-09
6.192885369e-09
5.304065193e-09
4.549769739e-09
3.908700852e-09
3.363055335e-09
2.897936382e-09
2.500865624e-09
2.161378576e-09
1.87068912e-09
1.621411155e-09
1.407327551e-09
1.223198241e-09
1.064600722e-09
9.277973811e-10
8.096250267e-10
7.074028452e-10
6.18855612e-10
5.420495727e-10
4.753388406e-10
4.173205354e-10
3.667971922e-10
3.227452249e-10
2.842884358e-10
2.506757342e-10
2.212623726e-10
1.954941238e-10
1.728939188e-10
1.530505503e-10
1.356091067e-10
1.202628626e-10
1.067463937e-10
9.482972305e-11
8.431333854e-11
7.50239446e-11
6.681083633e-11
5.954280007e-11
5.31054606e-11
4.739900753e-11
4.23362443e-11
3.784091157e-11
3.38462449e-11
3.029373202e-11
2.713204117e-11
2.431609539e-11
2.18062723e-11
1.956771122e-11
1.756971278e-11
1.578521791e-11
1.419035526e-11
1.276404765e-11
1.148766948e-11
1.034474807e-11
9.320703228e-12
8.402619765e-12
7.579048608e-12
6.83983282e-12
6.175955194e-12
5.579404649e-12
5.043058998e-12
4.560581982e-12
4.126332773e-12
3.735286343e-12
3.382963359e-12
3.065368401e-12
2.778935475e-12
2.520479926e-12
2.287155954e-12
2.076419072e-12
1.885992889e-12
1.713839711e-12
1.558134493e-12
1.417241754e-12
1.289695095e-12
1.174179025e-12
1.069512811e-12
9.746361308e-13
8.885963117e-13
8.105369754e-13
7.396879263e-13
6.753561444e-13
6.169177553e-13
5.638108677e-13
5.155291824e-13
4.716162839e-13
4.316605423e-13
3.952905541e-13
3.62171066e-13
3.319993267e-13
3.045018208e-13
2.794313426e-13
2.565643744e-13
2.356987352e-13
2.166514712e-13
1.992569628e-13
1.833652246e-13
1.688403776e-13
1.555592773e-13
1.434102782e-13
1.32292124e-13
1.221129477e-13
1.127893714e-13
1.042456957e-13
9.641316902e-14
8.922932835e-14
8.263740541e-14
7.658579016e-14
7.10275468e-14
6.591997654e-14
6.122422269e-14
5.690491365e-14
5.292984017e-14
4.926966345e-14
4.589765101e-14
4.278943757e-14
3.992280866e-14
3.727750447e-14
3.483504223e-14
3.25785552e-14
3.049264662e-14
2.856325731e-14
2.677754556e-14
2.512377806e-14
2.35912309e-14
2.217009975e-14
2.085141812e-14
1.962698326e-14
1.848928864e-14
1.743146271e-14
1.644721311e-14
1.553077597e-14
1.467686977e-14
1.388065333e-14
1.313768757e-14
1.244390073e-14
1.17955566e-14
1.118922571e-14
1.06217589e-14
1.009026343e-14
9.592081025e-15
9.124767939e-15
8.686076773e-15
8.273939854e-15
7.886454083e-15
7.521867102e-15
7.178564663e-15
6.855059098e-15
6.549978773e-15
6.26205847e-15
5.990130586e-15
5.733117087e-15
5.490022162e-15
5.259925489e-15
5.041976089e-15
4.835386698e-15
4.639428607e-15
4.453426955e-15
4.276756405e-15
4.10883719e-15
3.949131489e-15
3.797140104e-15
3.652399419e-15
3.514478608e-15
3.382977073e-15
3.2575221e-15
3.137766697e-15
3.023387623e-15
2.914083566e-15
2.80957348e-15
2.709595048e-15
2.613903273e-15
2.522269187e-15
2.434478657e-15
2.35033129e-15
2.269639424e-15
2.192227203e-15
2.117929716e-15
2.046592218e-15
1.978069397e-15
1.912224709e-15
1.848929759e-15
1.788063735e-15
1.729512877e-15
1.673169999e-15
1.618934033e-15
1.566709624e-15
1.516406737e-15
1.467940312e-15
1.42122993e-15
1.376199512e-15
1.332777038e-15
1.290894288e-15
1.250486597e-15
1.211492635e-15
1.173854194e-15
1.137516003e-15
1.10242554e-15
1.068532872e-15
1.035790497e-15
1.004153199e-15
9.735779161e-16
9.440236155e-16
9.154511748e-16
8.878232746e-16
8.611042975e-16
8.352602325e-16
8.102585871e-16
7.860683048e-16
7.626596871e-16
7.400043217e-16
7.180750147e-16
6.968457268e-16
6.762915139e-16
6.563884713e-16
6.371136813e-16
6.184451638e-16
6.0036183e-16
5.828434392e-16
5.658705572e-16
5.494245183e-16
5.334873886e-16
5.18041932e-16
5.030715773e-16
4.885603885e-16
4.744930353e-16
4.608547659e-16
4.476313816e-16
4.348092122e-16
4.223750929e-16
4.103163421e-16
3.986207414e-16
3.872765153e-16
3.762723127e-16
3.655971894e-16
3.552405908e-16
3.451923364e-16
3.354426044e-16
3.259819169e-16
3.168011267e-16
3.078914035e-16
2.99244222e-16
2.908513496e-16
2.827048351e-16
2.74796998e-16
2.671204178e-16
2.596679244e-16
2.524325884e-16
2.454077123e-16
2.385868217e-16
2.31963657e-16
2.255321655e-16
2.19286494e-16
2.132209811e-16
2.073301507e-16
2.016087051e-16
1.960515187e-16
1.906536317e-16
1.854102443e-16
1.803167111e-16
1.753685357e-16
1.705613654e-16
1.658909863e-16
1.613533181e-16
1.569444103e-16
1.526604369e-16
1.484976925e-16
1.444525883e-16
1.40521648e-16
1.367015041e-16
1.329888938e-16
1.293806562e-16
1.258737285e-16
1.224651425e-16
1.191520219e-16
1.159315792e-16
1.128011124e-16
1.097580026e-16
1.06799711e-16
1.039237765e-16
1.011278131e-16
9.840950714e-17
9.576661559e-17
9.319696323e-17
9.06984407e-17
8.826900234e-17
8.590666415e-17
8.360950182e-17
8.137564882e-17
7.920329458e-17
7.709068268e-17
7.503610921e-17
7.303792101e-17
7.109451418e-17
6.920433244e-17
6.736586569e-17
6.557764857e-17
6.383825902e-17
6.214631698e-17
6.050048305e-17
5.889945725e-17
5.734197779e-17
5.582681991e-17
5.43527947e-17
5.291874803e-17
5.152355947e-17
5.016614127e-17
4.884543735e-17
4.756042233e-17
4.631010058e-17
4.509350537e-17
4.390969793e-17
4.275776665e-17
4.163682622e-17
4.054601686e-17
3.948450355e-17
3.845147528e-17
3.744614431e-17
3.646774551e-17
3.551553565e-17
3.458879278e-17
3.368681553e-17
3.280892259e-17
3.195445203e-17
3.112276077e-17
3.0313224e-17
2.952523464e-17
2.875820285e-17
2.801155547e-17
2.728473556e-17
2.65772019e-17
2.588842858e-17
2.521790446e-17
2.456513283e-17
2.392963093e-17
2.331092956e-17
2.27085727e-17
2.212211708e-17
2.155113186e-17
2.099519825e-17
2.045390913e-17
1.992686878e-17
1.941369247e-17
1.89140062e-17
1.842744637e-17
1.795365949e-17
1.749230185e-17
1.704303931e-17
1.660554695e-17
1.617950885e-17
1.576461782e-17
1.536057517e-17
1.496709043e-17
1.458388112e-17
1.421067258e-17
1.384719765e-17
1.349319655e-17
1.314841661e-17
1.281261211e-17
1.248554402e-17
1.21669799e-17
1.185669364e-17
1.155446531e-17
1.126008097e-17
1.097333255e-17
1.06940176e-17
1.042193922e-17
1.015690585e-17
9.898731122e-18
9.647233749e-18
9.402237347e-18
9.163570314e-18
8.931065696e-18
8.704561052e-18
8.483898334e-18
8.268923761e-18
8.0594877e-18
7.855444553e-18
7.656652645e-18
7.462974112e-18
7.274274798e-18
7.090424152e-18
6.911295127e-18
6.736764087e-18
6.566710706e-18
6.401017884e-18
6.239571653e-18
6.082261093e-18
5.928978249e-18
5.779618046e-18
5.634078214e-18
5.492259209e-18
5.354064137e-18
5.219398685e-18
5.088171048e-18
4.96029186e-18
4.835674129e-18
4.71423317e-18
4.595886545e-18
4.480553999e-18
4.368157403e-18
4.258620695e-18
4.151869821e-18
4.047832685e-18
3.946439096e-18
3.84762071e-18
3.751310987e-18
3.657445137e-18
3.565960078e-18
3.476794382e-18
3.389888239e-18
3.305183404e-18
3.222623164e-18
3.142152289e-18
3.063716995e-18
2.987264906e-18
2.912745012e-18
2.840107638e-18
2.7693044e-18
2.700288177e-18
2.633013073e-18
2.567434385e-18
2.503508569e-18
2.441193212e-18
2.380446995e-18
2.321229671e-18
2.263502029e-18
2.207225867e-18
2.152363969e-18
2.098880069e-18
2.046738834e-18
1.995905832e-18
1.946347507e-18
1.898031158e-18
1.850924911e-18
1.8049977e-18
1.760219237e-18
1.716559996e-18
1.673991189e-18
1.632484741e-18
1.592013274e-18
1.552550083e-18
1.514069115e-18
1.476544952e-18
1.439952789e-18
1.404268413e-18
1.369468188e-18
1.335529035e-18
1.302428411e-18
1.270144292e-18
1.238655156e-18
1.207939967e-18
1.177978154e-18
1.148749594e-18
1.1202346e-18
1.092413898e-18
1.065268617e-18
1.038780269e-18
1.012930735e-18
9.877022524e-19
9.630773987e-19
9.39039079e-19
9.155705143e-19
8.926552309e-19
8.702770509e-19
8.484200851e-19
8.270687288e-19
8.062076595e-19
7.858218389e-19
7.658965183e-19
7.464172487e-19
7.273698949e-19
7.087406522e-19
6.905160663e-19
6.726830486e-19
6.552288847e-19
6.381412235e-19
6.214080349e-19
6.050175126e-19
5.889578817e-19
4.608520021e-19
3.251822222e-19
2.299277624e-19
1.626566278e-19
1.15026548e-19
8.127877901e-20
5.737210026e-20
4.044870657e-20
2.848052613e-20
2.002638303e-20
1.406199248e-20
9.859705309e-21
6.903025673e-21
4.82571295e-21
3.36837055e-21
2.347504201e-21
1.633482986e-21
1.134854064e-21
7.87190679e-22
5.451721498e-22
3.769662609e-22
2.602493855e-22
1.793910377e-22
1.234647753e-22
8.484500699e-23
5.82186533e-23
3.989004546e-23
2.729288542e-23
1.864811842e-23
1.272452183e-23
8.671436364e-24
5.902119279e-24
4.012531211e-24
2.724898525e-24
1.848559219e-24
1.252849115e-24
8.48358028e-25
5.739954824e-25
3.880803266e-25
2.622131248e-25
1.770693025e-25
1.195157011e-25
8.063737531e-26
5.438940114e-26
3.667709716e-26
2.472942467e-26
1.667270398e-26
1.124098491e-26
7.579504342e-27
5.111465694e-27
3.447835068e-27
2.326323628e-27
1.57014817e-27
1.060183147e-27
7.161640507e-28
4.840123744e-28
3.272920068e-28
2.214504467e-28
1.499392131e-28
1.016012678e-28
6.891279152e-29
4.679743544e-29
3.182961493e-29
2.169562282e-29
1.483210314e-29
1.018281786e-29
7.033139925e-30
4.899502328e-30
3.454506731e-30
2.476397734e-30
1.814809809e-30
1.36790839e-30
1.066547133e-30
8.637991439e-31
7.278174498e-31
6.368772779e-31
5.764827515e-31
5.366791235e-31
5.107417939e-31
4.941089435e-31
4.83442585e-31
4.769201701e-31
4.73146285e-31
4.712004499e-31
4.701703053e-31
4.698624299e-31
4.699831631e-31
4.703395302e-31
4.708286514e-31
4.713269861e-31
4.718111482e-31
4.722630166e-31
4.726607217e-31
4.730268361e-31
4.73336607e-31
4.735967778e-31
4.738143739e-31
4.739949966e-31
4.741261762e-31
4.742292022e-31
4.743042793e-31
4.743530047e-31
4.743816229e-31
4.743897534e-31
4.743828289e-31
4.743647193e-31
4.743389593e-31
4.743035678e-31
4.742548264e-31
4.742080568e-31
4.741570282e-31
4.741038402e-31
4.740517413e-31
4.740032016e-31
4.739561547e-31
4.739103718e-31
4.738690903e-31
4.73826486e-31
4.737914707e-31
4.737631562e-31
4.737314341e-31
4.737124817e-31
4.73688172e-31
4.736687368e-31
4.736559063e-31
4.736401987e-31
4.736283324e-31
4.736164866e-31
4.73608555e-31
4.735961175e-31
4.735838609e-31
4.73572259e-31
4.735617201e-31
4.735496889e-31
4.735423564e-31
4.735264296e-31
4.735133997e-31
4.734973109e-31
4.734847043e-31
4.734658884e-31
4.734480644e-31
4.734327186e-31
4.734142665e-31
4.73395272e-31
4.733798209e-31
4.733669506e-31
4.733512985e-31
4.733378817e-31
4.733233656e-31
4.733113947e-31
4.733018302e-31
4.732937214e-31
4.732858701e-31
4.732753111e-31
4.732621449e-31
4.732561683e-31
4.732470074e-31
4.73241779e-31
4.732338705e-31
4.73226778e-31
4.732208448e-31
4.732153112e-31
4.732083192e-31
4.732055517e-31
4.731995631e-31
4.731948678e-31
4.731928614e-31
4.731878473e-31
4.731806086e-31
4.7317646e-31
4.731706607e-31
4.731680092e-31
4.731624468e-31
4.731612403e-31
4.73157795e-31
4.731546414e-31
4.731534846e-31
4.731514199e-31
4.731460195e-31
4.731436406e-31
4.731412884e-31
4.731405073e-31
4.731371611e-31
4.731351008e-31
4.731337424e-31
4.731336795e-31
4.731329081e-31
4.73136788e-31
4.731347208e-31
4.731334068e-31
4.731348329e-31
4.731360547e-31
4.731375552e-31
4.731399672e-31
4.731400616e-31
4.731448369e-31
4.731512488e-31
4.731520115e-31
4.731550223e-31
4.731547332e-31
4.731553291e-31
4.731595471e-31
4.731627807e-31
4.731638956e-31
4.731637162e-31
4.731698012e-31
4.731724763e-31
4.731698661e-31
4.731716851e-31
4.731772887e-31
4.731751152e-31
4.731738983e-31
4.731734601e-31
4.731756783e-31
4.731756271e-31
4.731724608e-31
4.731736263e-31
4.731755625e-31
4.731727203e-31
4.731691074e-31
4.731686651e-31
4.731679588e-31
4.731663337e-31
4.731639921e-31
4.731632016e-31
4.731574604e-31
4.731551579e-31
4.731560515e-31
4.731510253e-31
4.731483771e-31
4.731456843e-31
4.731433942e-31
4.731367592e-31
4.731420486e-31
4.731328669e-31
4.73131491e-31
4.731347774e-31
4.731286511e-31
4.731259619e-31
4.731199597e-31
4.731188376e-31
4.731160594e-31
4.731136264e-31
4.731186013e-31
4.731115714e-31
4.731087316e-31
4.731093217e-31
4.731113558e-31
4.731072955e-31
4.731046223e-31
)
;

boundaryField
{
    inlet
    {
        type            fixedValue;
        value           uniform 0;
    }
    outlet
    {
        type            zeroGradient;
    }
    wall
    {
        type            empty;
    }
}


// ************************************************************************* //
