/*--------------------------------*- C++ -*----------------------------------*\
  =========                 |
  \\      /  F ield         | OpenFOAM: The Open Source CFD Toolbox
   \\    /   O peration     | Website:  https://openfoam.org
    \\  /    A nd           | Version:  7
     \\/     M anipulation  |
\*---------------------------------------------------------------------------*/
FoamFile
{
    version     2.0;
    format      ascii;
    class       volScalarField;
    location    "0.000558243009";
    object      C3H3;
}
// * * * * * * * * * * * * * * * * * * * * * * * * * * * * * * * * * * * * * //

dimensions      [0 0 0 0 0 0 0];

internalField   nonuniform List<scalar> 
1500
(
2.023194228e-30
5.846103987e-30
1.092895451e-29
1.534945825e-29
1.824710844e-29
1.983889131e-29
2.060754734e-29
2.093927963e-29
2.106780415e-29
2.111229708e-29
2.112550979e-29
2.112806209e-29
2.112724887e-29
2.112550367e-29
2.112364698e-29
2.112196985e-29
2.11205666e-29
2.111944353e-29
2.111856716e-29
2.111789283e-29
2.111738114e-29
2.111700425e-29
2.111674498e-29
2.11165921e-29
2.111653511e-29
2.111656056e-29
2.111665075e-29
2.111678462e-29
2.111693983e-29
2.111709534e-29
2.111723343e-29
2.111734091e-29
2.111740944e-29
2.111743508e-29
2.111741747e-29
2.111735886e-29
2.111726331e-29
2.111713598e-29
2.11169827e-29
2.111680966e-29
2.111662322e-29
2.111642964e-29
2.111623489e-29
2.111604438e-29
2.111586263e-29
2.111569315e-29
2.111553825e-29
2.111539907e-29
2.111527567e-29
2.111516726e-29
2.111507242e-29
2.11149894e-29
2.111491634e-29
2.111485157e-29
2.111479368e-29
2.111474169e-29
2.111469507e-29
2.111465375e-29
2.111461806e-29
2.11145887e-29
2.111456663e-29
2.1114553e-29
2.111454907e-29
2.111455612e-29
2.111457535e-29
2.111460784e-29
2.111465444e-29
2.111471569e-29
2.11147918e-29
2.111488255e-29
2.11149873e-29
2.111510495e-29
2.111523394e-29
2.111537232e-29
2.111551773e-29
2.11156675e-29
2.111581875e-29
2.111596841e-29
2.111611338e-29
2.111625059e-29
2.111637706e-29
2.111649003e-29
2.111658703e-29
2.111666592e-29
2.111672493e-29
2.111676273e-29
2.111677846e-29
2.11167717e-29
2.111674249e-29
2.111669133e-29
2.111661916e-29
2.11165273e-29
2.111641748e-29
2.111629173e-29
2.111615238e-29
2.111600196e-29
2.111584319e-29
2.111567886e-29
2.111551177e-29
2.111534467e-29
2.111518019e-29
2.111502075e-29
2.111486848e-29
2.111472523e-29
2.111459243e-29
2.111447115e-29
2.111436201e-29
2.111426523e-29
2.111418063e-29
2.111410768e-29
2.111404554e-29
2.111399315e-29
2.111394925e-29
2.111391252e-29
2.111388162e-29
2.111385527e-29
2.111383232e-29
2.111381177e-29
2.111379284e-29
2.111377499e-29
2.111375788e-29
2.111374141e-29
2.111372565e-29
2.111371084e-29
2.111369731e-29
2.11136855e-29
2.111367584e-29
2.111366877e-29
2.111366469e-29
2.111366395e-29
2.111366682e-29
2.111367349e-29
2.111368412e-29
2.111369878e-29
2.111371756e-29
2.11137405e-29
2.111376768e-29
2.11137992e-29
2.111383522e-29
2.111387593e-29
2.11139216e-29
2.11139725e-29
2.111402898e-29
2.111409135e-29
2.111415992e-29
2.111423495e-29
2.111431662e-29
2.1114405e-29
2.111450004e-29
2.111460154e-29
2.111470913e-29
2.11148223e-29
2.111494039e-29
2.111506256e-29
2.111518789e-29
2.111531532e-29
2.111544374e-29
2.111557197e-29
2.111569885e-29
2.111582318e-29
2.111594382e-29
2.111605969e-29
2.111616975e-29
2.111627303e-29
2.111636866e-29
2.111645581e-29
2.111653372e-29
2.111660171e-29
2.111665911e-29
2.111670532e-29
2.111673978e-29
2.111676198e-29
2.111677144e-29
2.111676778e-29
2.111675066e-29
2.111671989e-29
2.111667538e-29
2.111661722e-29
2.111654567e-29
2.111646123e-29
2.111636463e-29
2.111625691e-29
2.111613939e-29
2.111601372e-29
2.111588189e-29
2.111574621e-29
2.111560931e-29
2.111547408e-29
2.111534359e-29
2.111522105e-29
2.111510962e-29
2.111501233e-29
2.111493194e-29
2.111487076e-29
2.111483058e-29
2.111481259e-29
2.111481731e-29
2.111484467e-29
2.111489405e-29
2.111496444e-29
2.111505462e-29
2.111516328e-29
2.11152892e-29
2.111543135e-29
2.111558883e-29
2.11157608e-29
2.111594623e-29
2.111614357e-29
2.11163504e-29
2.111656305e-29
2.111677634e-29
2.11169835e-29
2.111717631e-29
2.111734567e-29
2.111748236e-29
2.111757832e-29
2.111762797e-29
2.111762985e-29
2.111758803e-29
2.111751325e-29
2.111742356e-29
2.111734409e-29
2.11173059e-29
2.111734379e-29
2.111749305e-29
2.111778536e-29
2.111824417e-29
2.111887995e-29
2.111968599e-29
2.112063529e-29
2.11216792e-29
2.112274841e-29
2.112375669e-29
2.112460747e-29
2.112520324e-29
2.112545724e-29
2.112530654e-29
2.11247256e-29
2.112373879e-29
2.112243108e-29
2.112095613e-29
2.111954293e-29
2.111850434e-29
2.111825428e-29
2.111934285e-29
2.112251325e-29
2.112875626e-29
2.113924767e-29
2.115483357e-29
2.117412676e-29
2.118077245e-29
2.118277934e-29
2.118484394e-29
2.118696993e-29
2.118915981e-29
2.119141597e-29
2.119374102e-29
2.119613788e-29
2.119860969e-29
2.120115977e-29
2.120379161e-29
2.120650884e-29
2.120931524e-29
2.121221476e-29
2.121521151e-29
2.121830981e-29
2.122151417e-29
2.122482933e-29
2.122826023e-29
2.123181209e-29
2.123549036e-29
2.123930077e-29
2.124324934e-29
2.124734237e-29
2.12515865e-29
2.125598867e-29
2.12605562e-29
2.126529677e-29
2.127021844e-29
2.127532968e-29
2.128063938e-29
2.128615689e-29
2.129189204e-29
2.129785514e-29
2.130405703e-29
2.131050908e-29
2.131722326e-29
2.132421214e-29
2.13314889e-29
2.133906741e-29
2.134696223e-29
2.135518864e-29
2.13637627e-29
2.137270127e-29
2.138202206e-29
2.139174365e-29
2.140188555e-29
2.141246826e-29
2.142351328e-29
2.143504318e-29
2.144708166e-29
2.145965356e-29
2.147278498e-29
2.14865033e-29
2.150083722e-29
2.151581686e-29
2.153147383e-29
2.154784127e-29
2.156495393e-29
2.158284826e-29
2.160156247e-29
2.162113663e-29
2.164161274e-29
2.166303482e-29
2.168544901e-29
2.170890369e-29
2.173344953e-29
2.175913964e-29
2.178602965e-29
2.181417785e-29
2.184364532e-29
2.187449601e-29
2.190679692e-29
2.194061821e-29
2.197603336e-29
2.201311932e-29
2.205195664e-29
2.20926297e-29
2.213522679e-29
2.217984038e-29
2.222656726e-29
2.227550873e-29
2.232677085e-29
2.238046462e-29
2.243670621e-29
2.249561722e-29
2.25573249e-29
2.262196243e-29
2.26896692e-29
2.276059106e-29
2.283488066e-29
2.291269775e-29
2.29942095e-29
2.307959085e-29
2.316902491e-29
2.326270326e-29
2.336082644e-29
2.346360431e-29
2.357125653e-29
2.368401297e-29
2.380211427e-29
2.392581228e-29
2.405537064e-29
2.419106535e-29
2.433318531e-29
2.448203299e-29
2.463792508e-29
2.480119315e-29
2.497218439e-29
2.515126236e-29
2.533880779e-29
2.553521941e-29
2.574091483e-29
2.595633144e-29
2.618192742e-29
2.641818271e-29
2.666560006e-29
2.692470621e-29
2.719605298e-29
2.748021855e-29
2.777780868e-29
2.808945813e-29
2.841583198e-29
2.875762716e-29
2.911557395e-29
2.949043757e-29
2.988301992e-29
3.029416124e-29
3.072474199e-29
3.117568475e-29
3.164795617e-29
3.214256905e-29
3.26605845e-29
3.320311414e-29
3.377132247e-29
3.436642922e-29
3.49897119e-29
3.564250836e-29
3.63262195e-29
3.704231206e-29
3.779232146e-29
3.857785481e-29
3.940059398e-29
4.026229877e-29
4.116481018e-29
4.211005378e-29
4.310004319e-29
4.413688364e-29
4.522277565e-29
4.636001878e-29
4.755101553e-29
4.879827526e-29
5.010441827e-29
5.147217995e-29
5.290441503e-29
5.440410188e-29
5.597434698e-29
5.761838941e-29
5.933960543e-29
6.114151317e-29
6.302777741e-29
6.500221438e-29
6.706879668e-29
6.92316583e-29
7.149509961e-29
7.386359257e-29
7.634178582e-29
7.893451004e-29
8.164678321e-29
8.448381599e-29
8.745101722e-29
9.055399937e-29
9.379858415e-29
9.719080813e-29
1.007369284e-28
1.044434285e-28
1.083170241e-28
1.123646687e-28
1.165935603e-28
1.210111468e-28
1.256251325e-28
1.304434843e-28
1.354744383e-28
1.40726506e-28
1.462084813e-28
1.519294469e-28
1.578987821e-28
1.641261691e-28
1.706216012e-28
1.7739539e-28
1.844581735e-28
1.918209248e-28
1.9949496e-28
2.074919478e-28
2.158239189e-28
2.245032754e-28
2.335428018e-28
2.429556759e-28
2.527554802e-28
2.629562141e-28
2.735723076e-28
2.846186345e-28
2.961105275e-28
3.080637941e-28
3.204947328e-28
3.33420152e-28
3.468573885e-28
3.608243283e-28
3.753394288e-28
3.904217421e-28
4.06090941e-28
4.223673452e-28
4.392719515e-28
4.568264643e-28
4.750533297e-28
4.939757713e-28
5.13617829e-28
5.340044005e-28
5.551612859e-28
5.771152353e-28
5.998940002e-28
6.235263885e-28
6.480423233e-28
6.734729063e-28
6.99850485e-28
7.272087257e-28
7.555826908e-28
7.850089219e-28
8.155255293e-28
8.471722865e-28
8.799907327e-28
9.140242816e-28
9.493183382e-28
9.859204234e-28
1.023880308e-27
1.063250154e-27
1.10408467e-27
1.146441273e-27
1.190380263e-27
1.23596501e-27
1.283262157e-27
1.332341832e-27
1.383277882e-27
1.436148117e-27
1.49103458e-27
1.548023831e-27
1.607207257e-27
1.668681409e-27
1.732548364e-27
1.798916122e-27
1.86789904e-27
1.939618308e-27
2.014202479e-27
2.091788059e-27
2.172520172e-27
2.256553312e-27
2.344052213e-27
2.43519285e-27
2.530163617e-27
2.629166733e-27
2.732419925e-27
2.840158503e-27
2.952637916e-27
3.070136831e-27
3.192960853e-27
3.321447985e-27
3.455975337e-27
3.596967635e-27
3.74490886e-27
3.900357106e-27
4.063964145e-27
4.236501398e-27
4.418894396e-27
4.612268628e-27
4.818010608e-27
5.03784936e-27
5.27396535e-27
5.529136387e-27
5.806932913e-27
6.111979095e-27
6.450304421e-27
6.8298147e-27
7.260923924e-27
7.757402345e-27
8.337516319e-27
9.025559716e-27
9.853910859e-27
1.086579602e-26
1.211900268e-26
1.369086939e-26
1.568499154e-26
1.824023343e-26
2.15428405e-26
2.584271841e-26
3.147531311e-26
3.889101948e-26
4.869470943e-26
6.169886205e-26
7.899497699e-26
1.020495629e-25
1.328331584e-25
1.739937525e-25
2.290898845e-25
3.029039584e-25
4.018633765e-25
5.346065919e-25
7.127439447e-25
9.518803068e-25
1.272989616e-24
1.704262372e-24
2.283588825e-24
3.061896565e-24
4.107636453e-24
5.512811972e-24
7.401082955e-24
9.938657298e-24
1.334892972e-23
1.793215653e-23
2.409189864e-23
3.237056095e-23
4.349715676e-23
5.845150206e-23
7.855049039e-23
1.055640424e-22
1.418709354e-22
1.90668228e-22
2.562527095e-22
3.443991436e-22
4.628685877e-22
6.220915174e-22
8.360858587e-22
1.123690697e-21
1.510224194e-21
2.029711566e-21
2.727879082e-21
3.666177453e-21
4.927188441e-21
6.62189021e-21
8.899420291e-21
1.19601947e-20
1.607353668e-20
2.160136514e-20
2.903002516e-20
3.90130591e-20
5.242867773e-20
7.04569832e-20
9.468373106e-20
1.272397504e-19
1.709882748e-19
2.297766444e-19
3.087744971e-19
4.149281619e-19
5.575711744e-19
7.492445499e-19
1.006798867e-18
1.352874968e-18
1.817893322e-18
2.442726773e-18
3.282291381e-18
4.410370689e-18
5.926096994e-18
7.96265871e-18
1.069899824e-17
1.437552733e-17
1.931523938e-17
2.595207195e-17
3.486900872e-17
4.684926505e-17
6.294504906e-17
8.456993228e-17
1.136229354e-16
1.526552167e-16
2.050939887e-16
2.755433082e-16
3.701881288e-16
4.973370633e-16
6.681514694e-16
8.976248181e-16
1.205898255e-15
1.62002776e-15
2.176357911e-15
2.923710484e-15
3.927667589e-15
5.276325052e-15
7.088020742e-15
9.52171581e-15
1.279093957e-14
1.718252148e-14
2.308175381e-14
3.100619326e-14
4.165106809e-14
5.595027732e-14
7.515833828e-14
1.009604812e-13
1.356205657e-13
1.821798235e-13
2.4472391e-13
3.287417703e-13
4.416079259e-13
5.932306902e-13
7.969234875e-13
1.070576189e-12
1.438229946e-12
1.932194776e-12
2.595897295e-12
3.487710885e-12
4.686107948e-12
6.296591747e-12
8.461024213e-12
1.137018065e-11
1.528065215e-11
2.053760848e-11
2.76054654e-11
3.710921956e-11
4.989019121e-11
6.708124039e-11
9.020832367e-11
1.213277042e-10
1.632114483e-10
2.195983407e-10
2.955334431e-10
3.978277409e-10
5.356803963e-10
7.215209846e-10
9.721489577e-10
1.310274016e-09
1.766596071e-09
2.382609492e-09
3.214376451e-09
4.33759188e-09
5.854362292e-09
7.902247e-09
1.066626856e-08
1.439479463e-08
1.9420431e-08
2.618734885e-08
3.528680042e-08
4.750295352e-08
6.38715911e-08
8.575466853e-08
1.149341574e-07
1.537290551e-07
2.051397966e-07
2.730246425e-07
3.623129771e-07
4.792611849e-07
6.317586483e-07
8.296380815e-07
1.085391841e-06
1.413820501e-06
1.835274401e-06
2.372855492e-06
3.055060818e-06
3.900623903e-06
4.954273997e-06
6.258828881e-06
7.863014261e-06
9.821587445e-06
1.219520405e-05
1.505152406e-05
1.846624713e-05
2.252127363e-05
2.730427851e-05
3.290865858e-05
3.955351446e-05
4.711420543e-05
5.582164423e-05
6.579559915e-05
7.731271627e-05
9.018719141e-05
0.0001046541088
0.00012074552
0.000138570898
0.0001576226921
0.0001775665988
0.0001975823852
0.0002164641212
0.0002326492672
0.0002444398029
0.000250430005
0.0002497134286
0.000242410993
0.000229479958
0.000212366424
0.0001927190322
0.0001720468545
0.0001515793714
0.0001319247187
0.0001136712932
9.725993339e-05
8.277671067e-05
7.016064091e-05
5.92840208e-05
4.998220322e-05
4.207324494e-05
3.537528351e-05
2.972179379e-05
2.506051714e-05
2.113897414e-05
1.779808507e-05
1.500115023e-05
1.265900395e-05
1.069602301e-05
9.049049135e-06
7.66563872e-06
6.503745065e-06
5.524575e-06
4.699476834e-06
4.00343165e-06
3.415571688e-06
2.918477378e-06
2.497598698e-06
2.140776199e-06
1.837843078e-06
1.580293956e-06
1.361008948e-06
1.174023748e-06
1.014338059e-06
8.777560383e-07
7.607534173e-07
6.603668757e-07
5.74101905e-07
4.998561348e-07
4.358554522e-07
3.80600784e-07
3.328237448e-07
2.914496467e-07
2.555666285e-07
2.243998709e-07
1.9729004e-07
1.736752492e-07
1.530759476e-07
1.350822474e-07
1.193432843e-07
1.055582721e-07
9.346897462e-08
8.285336019e-08
7.352024731e-08
6.530477974e-08
5.806459768e-08
5.167659355e-08
4.603415913e-08
4.104484658e-08
3.662837818e-08
3.271495064e-08
2.924378815e-08
2.61619061e-08
2.342305338e-08
2.0986806e-08
1.881778956e-08
1.688501122e-08
1.516128492e-08
1.362273632e-08
1.224837569e-08
1.101972904e-08
9.920519049e-09
8.936388785e-09
8.054662131e-09
7.264135799e-09
6.554898526e-09
5.918173727e-09
5.346182378e-09
4.832023405e-09
4.369569208e-09
3.953374309e-09
3.578595381e-09
3.240921167e-09
2.936510995e-09
2.661940783e-09
2.414155569e-09
2.190427729e-09
1.988320184e-09
1.805653939e-09
1.640479453e-09
1.491051327e-09
1.355805937e-09
1.233341627e-09
1.122401176e-09
1.021856246e-09
9.306935846e-10
8.48002777e-10
7.729653579e-10
7.0484513e-10
6.429795477e-10
5.867720418e-10
5.356851799e-10
4.892345662e-10
4.469833966e-10
4.085375967e-10
3.735414771e-10
3.416738481e-10
3.126445443e-10
2.861913121e-10
2.62077023e-10
2.400871754e-10
2.200276547e-10
2.017227233e-10
1.850132166e-10
1.69754923e-10
1.558171276e-10
1.430813035e-10
1.314399345e-10
1.207954559e-10
1.110593006e-10
1.021510402e-10
9.399761092e-11
8.653261596e-11
7.969569606e-11
7.343196181e-11
6.769148113e-11
6.242881644e-11
5.760260664e-11
5.317518923e-11
4.911225869e-11
4.538255755e-11
4.195759679e-11
3.881140278e-11
3.592028816e-11
3.326264423e-11
3.081875286e-11
2.857061598e-11
2.65018009e-11
2.459730005e-11
2.284340365e-11
2.122758412e-11
1.973839111e-11
1.836535618e-11
1.709890608e-11
1.593028401e-11
1.485147799e-11
1.385515564e-11
1.293460494e-11
1.208368021e-11
1.129675299e-11
1.056866726e-11
9.894698678e-12
9.270517395e-12
8.692154192e-12
8.155969584e-12
7.658625645e-12
7.197060302e-12
6.768463881e-12
6.370257692e-12
6.000074482e-12
5.655740578e-12
5.335259586e-12
5.036797482e-12
4.758669e-12
4.499325182e-12
4.257342e-12
4.031409944e-12
3.820324507e-12
3.622977474e-12
3.438348953e-12
3.265500082e-12
3.10356635e-12
2.951751489e-12
2.80932187e-12
2.675601383e-12
2.549966732e-12
2.431843138e-12
2.320700393e-12
2.216049243e-12
2.11743808e-12
2.024449898e-12
1.936699509e-12
1.85383099e-12
1.775515333e-12
1.701448301e-12
1.631348451e-12
1.564955321e-12
1.502027771e-12
1.442342452e-12
1.385692409e-12
1.331885789e-12
1.280744661e-12
1.232103929e-12
1.185810333e-12
1.141721531e-12
1.099705256e-12
1.05963854e-12
1.021407003e-12
9.849041925e-13
9.500309835e-13
9.166950221e-13
8.848102149e-13
8.542962576e-13
8.250782028e-13
7.970860607e-13
7.702544317e-13
7.445221676e-13
7.198320603e-13
6.961305537e-13
6.733674784e-13
6.514958079e-13
6.304714323e-13
6.102529504e-13
5.908014777e-13
5.720804689e-13
5.54055554e-13
5.366943874e-13
5.199665073e-13
5.038432072e-13
4.88297416e-13
4.733035873e-13
4.588375974e-13
4.448766506e-13
4.31399191e-13
4.183848221e-13
4.058142308e-13
3.93669118e-13
3.819321339e-13
3.705868178e-13
3.596175423e-13
3.49009462e-13
3.38748465e-13
3.288211283e-13
3.192146764e-13
3.099169427e-13
3.009163332e-13
2.922017935e-13
2.837627772e-13
2.755892171e-13
2.676714977e-13
2.600004304e-13
2.525672297e-13
2.453634907e-13
2.383811692e-13
2.316125619e-13
2.250502886e-13
2.186872751e-13
2.125167376e-13
2.065321677e-13
2.007273186e-13
1.95096192e-13
1.896330258e-13
1.843322827e-13
1.79188639e-13
1.741969752e-13
1.693523654e-13
1.64650069e-13
1.60085522e-13
1.556543288e-13
1.513522548e-13
1.471752191e-13
1.431192879e-13
1.39180668e-13
1.353557007e-13
1.316408562e-13
1.28032728e-13
1.245280281e-13
1.211235815e-13
1.178163223e-13
1.146032887e-13
1.114816193e-13
1.084485485e-13
1.055014036e-13
1.026376004e-13
9.985464016e-14
9.715010624e-14
9.452166103e-14
9.196704296e-14
8.948406366e-14
8.707060522e-14
8.472461768e-14
8.244411648e-14
8.022718013e-14
7.807194797e-14
7.597661796e-14
7.393944462e-14
7.195873706e-14
7.003285706e-14
6.816021724e-14
6.633927931e-14
6.456855242e-14
6.284659148e-14
6.117199566e-14
5.95434069e-14
5.795950844e-14
5.641902348e-14
5.492071385e-14
5.346337872e-14
5.204585339e-14
5.06670081e-14
4.932574689e-14
4.802100652e-14
4.675175542e-14
4.551699264e-14
4.431574691e-14
4.314707566e-14
4.201006413e-14
4.090382451e-14
3.982749504e-14
3.878023923e-14
3.776124506e-14
3.676972422e-14
3.580491137e-14
3.486606343e-14
3.395245889e-14
3.306339714e-14
3.219819784e-14
3.135620031e-14
3.053676289e-14
2.97392624e-14
2.896309356e-14
2.820766846e-14
2.747241601e-14
2.675678146e-14
2.606022591e-14
2.53822258e-14
2.472227248e-14
2.407987177e-14
2.345454351e-14
2.284582114e-14
2.225325132e-14
2.167639352e-14
2.111481963e-14
2.056811364e-14
2.003587123e-14
1.951769946e-14
1.90132164e-14
1.852205086e-14
1.804384205e-14
1.757823926e-14
1.712490157e-14
1.668349761e-14
1.625370522e-14
1.583521122e-14
1.542771114e-14
1.503090899e-14
1.464451695e-14
1.426825523e-14
1.390185176e-14
1.354504199e-14
1.31975687e-14
1.285918176e-14
1.252963794e-14
1.220870071e-14
1.189614005e-14
1.159173226e-14
1.12952598e-14
1.100651106e-14
1.072528028e-14
1.04513673e-14
1.018457745e-14
9.924721373e-15
9.671614885e-15
9.425078829e-15
9.184938928e-15
8.951025654e-15
8.723174087e-15
8.501223792e-15
8.28501869e-15
8.074406936e-15
7.869240803e-15
7.669376562e-15
7.474674377e-15
7.28499819e-15
7.10021562e-15
6.920197859e-15
6.744819573e-15
6.573958804e-15
6.40749688e-15
6.245318319e-15
6.087310746e-15
5.933364801e-15
5.783374063e-15
5.637234961e-15
5.494846702e-15
5.35611119e-15
5.220932954e-15
5.089219077e-15
4.96087912e-15
4.835825062e-15
4.713971229e-15
4.595234228e-15
4.47953289e-15
4.366788206e-15
4.256923265e-15
4.149863205e-15
4.045535147e-15
3.943868149e-15
3.84479315e-15
3.748242919e-15
3.654152005e-15
3.562456688e-15
3.473094936e-15
3.386006354e-15
3.301132141e-15
3.218415052e-15
3.137799348e-15
3.05923076e-15
2.982656449e-15
2.908024966e-15
2.835286217e-15
2.764391423e-15
2.695293087e-15
2.62794496e-15
2.562302004e-15
2.498320366e-15
2.435957338e-15
2.375171333e-15
2.315921851e-15
2.258169453e-15
2.201875729e-15
2.147003273e-15
2.093515657e-15
2.041377403e-15
1.990553956e-15
1.941011664e-15
1.892717751e-15
1.845640294e-15
1.7997482e-15
1.755011185e-15
1.711399751e-15
1.668885168e-15
1.62743945e-15
1.587035337e-15
1.547646276e-15
1.509246402e-15
1.471810521e-15
1.435314088e-15
1.399733195e-15
1.365044551e-15
1.331225468e-15
1.298253842e-15
1.266108139e-15
1.234767383e-15
1.204211135e-15
1.174419484e-15
1.145373031e-15
1.117052876e-15
1.089440604e-15
1.062518274e-15
1.036268405e-15
1.010673962e-15
9.857183498e-16
9.613853948e-16
9.376593387e-16
9.145248252e-16
8.919668898e-16
8.699709497e-16
8.485227932e-16
8.276085699e-16
8.072147815e-16
7.873282718e-16
7.679362178e-16
7.490261207e-16
7.305857972e-16
7.126033708e-16
6.950672638e-16
6.779661886e-16
6.612891402e-16
6.450253882e-16
6.291644693e-16
6.136961794e-16
5.98610567e-16
5.838979255e-16
5.695487862e-16
5.555539116e-16
5.419042886e-16
5.285911218e-16
5.156058268e-16
5.029400242e-16
4.905855327e-16
4.785343634e-16
4.667787135e-16
4.5531096e-16
4.441236539e-16
4.332095147e-16
4.225614238e-16
4.121724196e-16
4.020356913e-16
3.921445736e-16
3.82492541e-16
3.730732027e-16
3.638802972e-16
3.549076872e-16
3.461493543e-16
3.375993945e-16
3.292520132e-16
3.21101521e-16
3.131423291e-16
3.053689453e-16
2.977759703e-16
2.903580942e-16
2.831100925e-16
2.760268232e-16
2.69103223e-16
2.623343029e-16
2.557151429e-16
2.492408849e-16
2.429067225e-16
2.367078868e-16
2.306396258e-16
2.246971784e-16
2.188757395e-16
2.131704179e-16
2.075761936e-16
2.02087888e-16
1.582400203e-16
1.120485169e-16
7.941510369e-17
5.629820209e-17
3.988911919e-17
2.823564208e-17
1.996277797e-17
1.409498303e-17
9.937831289e-18
6.99644942e-18
4.918189585e-18
3.451921775e-18
2.418990662e-18
1.692453184e-18
1.182230077e-18
8.244905532e-19
5.740702109e-19
3.990608868e-19
2.769550147e-19
1.919014302e-19
1.327550662e-19
9.169272343e-20
6.323222995e-20
4.353845286e-20
2.993307647e-20
2.054890223e-20
1.408645805e-20
9.642949681e-21
6.59225185e-21
4.500868145e-21
3.069177283e-21
2.090437558e-21
1.422230323e-21
9.666065049e-22
6.563076628e-22
4.452208049e-22
3.017775708e-22
2.043978272e-22
1.383497657e-22
9.358989876e-23
6.32796097e-23
4.276798823e-23
2.88954754e-23
1.951786018e-23
1.318137004e-23
8.901200586e-24
6.010751625e-24
4.059122434e-24
2.741498491e-24
1.851926834e-24
1.251310305e-24
8.457363468e-25
5.71814401e-25
3.86763334e-25
2.61712424e-25
1.771782559e-25
1.200116279e-25
8.133688789e-26
5.516149145e-26
3.743810887e-26
2.543262172e-26
1.729697136e-26
1.178188819e-26
8.042085199e-27
5.505408845e-27
3.784614973e-27
2.617263795e-27
1.825464074e-27
1.28857846e-27
9.247668543e-28
6.784454366e-28
5.119182357e-28
3.995485896e-28
3.239153759e-28
2.731864018e-28
2.392516122e-28
2.167292778e-28
2.019088313e-28
1.922596672e-28
1.860939295e-28
1.821581522e-28
1.797688498e-28
1.784023903e-28
1.777202514e-28
1.773676575e-28
1.772804603e-28
1.773505575e-28
1.775047286e-28
1.77703226e-28
1.779031258e-28
1.780939252e-28
1.782689184e-28
1.784216877e-28
1.785603931e-28
1.786773894e-28
1.787745517e-28
1.788554299e-28
1.789224251e-28
1.789708157e-28
1.790090108e-28
1.790371364e-28
1.790562698e-28
1.790684557e-28
1.790735446e-28
1.790737445e-28
1.790703414e-28
1.790647126e-28
1.790559704e-28
1.790425112e-28
1.790298187e-28
1.790159944e-28
1.790012469e-28
1.789867698e-28
1.789733881e-28
1.78960361e-28
1.789474309e-28
1.789358028e-28
1.78923249e-28
1.78913129e-28
1.789049689e-28
1.788952051e-28
1.78889763e-28
1.788822306e-28
1.788759453e-28
1.788720845e-28
1.788669029e-28
1.788632262e-28
1.788592967e-28
1.788570477e-28
1.788530068e-28
1.788490918e-28
1.788456427e-28
1.788425079e-28
1.788390763e-28
1.78837762e-28
1.788330826e-28
1.78829548e-28
1.788250493e-28
1.788219815e-28
1.788162503e-28
1.78811235e-28
1.788069922e-28
1.788021115e-28
1.787963766e-28
1.787922079e-28
1.787888903e-28
1.787843394e-28
1.787806182e-28
1.787763779e-28
1.787730058e-28
1.787705211e-28
1.787683898e-28
1.787664998e-28
1.787633723e-28
1.787591929e-28
1.787577202e-28
1.787547176e-28
1.787537837e-28
1.787510948e-28
1.787490582e-28
1.78747468e-28
1.787455867e-28
1.787435196e-28
1.787429137e-28
1.787413605e-28
1.78739897e-28
1.787393841e-28
1.787379655e-28
1.78735843e-28
1.787347414e-28
1.787329329e-28
1.787322868e-28
1.787305112e-28
1.78730433e-28
1.787295085e-28
1.787287361e-28
1.787286097e-28
1.787281387e-28
1.787262359e-28
1.787256411e-28
1.787250051e-28
1.787249739e-28
1.787237924e-28
1.787231496e-28
1.787227764e-28
1.78722716e-28
1.787224242e-28
1.787239972e-28
1.78723219e-28
1.787225684e-28
1.787230181e-28
1.787234813e-28
1.787237262e-28
1.787246211e-28
1.787244934e-28
1.787259447e-28
1.787283734e-28
1.787283093e-28
1.787292386e-28
1.787287641e-28
1.787287456e-28
1.787301014e-28
1.787311827e-28
1.787313573e-28
1.787311093e-28
1.787331921e-28
1.787340622e-28
1.787328942e-28
1.78733356e-28
1.78735482e-28
1.787344563e-28
1.787340707e-28
1.787338264e-28
1.78734642e-28
1.787347319e-28
1.787336245e-28
1.787340646e-28
1.787350079e-28
1.787339924e-28
1.78732798e-28
1.78732809e-28
1.787328439e-28
1.787323492e-28
1.787317582e-28
1.787316898e-28
1.787297383e-28
1.78729108e-28
1.78729786e-28
1.787281538e-28
1.78727429e-28
1.787267803e-28
1.787262448e-28
1.787239645e-28
1.78726027e-28
1.787230279e-28
1.787228436e-28
1.787243522e-28
1.787222422e-28
1.78721459e-28
1.787194011e-28
1.787192468e-28
1.787183455e-28
1.787176018e-28
1.787196567e-28
1.7871715e-28
1.787162524e-28
1.787166213e-28
1.787177328e-28
1.787161076e-28
1.787151136e-28
)
;

boundaryField
{
    inlet
    {
        type            fixedValue;
        value           uniform 0;
    }
    outlet
    {
        type            zeroGradient;
    }
    wall
    {
        type            empty;
    }
}


// ************************************************************************* //
