/*--------------------------------*- C++ -*----------------------------------*\
  =========                 |
  \\      /  F ield         | OpenFOAM: The Open Source CFD Toolbox
   \\    /   O peration     | Website:  https://openfoam.org
    \\  /    A nd           | Version:  7
     \\/     M anipulation  |
\*---------------------------------------------------------------------------*/
FoamFile
{
    version     2.0;
    format      ascii;
    class       volScalarField;
    location    "0.000558243009";
    object      C3H3_0;
}
// * * * * * * * * * * * * * * * * * * * * * * * * * * * * * * * * * * * * * //

dimensions      [0 0 0 0 0 0 0];

internalField   nonuniform List<scalar> 
1500
(
2.024919116e-30
5.84915157e-30
1.093260299e-29
1.535255742e-29
1.824918582e-29
1.984007177e-29
2.060813414e-29
2.093953788e-29
2.106790532e-29
2.11123324e-29
2.112552063e-29
2.112806488e-29
2.112724946e-29
2.112550402e-29
2.112364772e-29
2.112197117e-29
2.112056852e-29
2.111944599e-29
2.111857006e-29
2.111789605e-29
2.111738456e-29
2.111700776e-29
2.111674849e-29
2.111659553e-29
2.111653838e-29
2.11165636e-29
2.11166535e-29
2.111678701e-29
2.111694182e-29
2.111709689e-29
2.111723451e-29
2.11173415e-29
2.111740953e-29
2.111743468e-29
2.111741659e-29
2.111735753e-29
2.111726155e-29
2.111713382e-29
2.111698018e-29
2.111680683e-29
2.11166201e-29
2.11164263e-29
2.111623137e-29
2.111604073e-29
2.111585892e-29
2.111568942e-29
2.111553456e-29
2.111539548e-29
2.111527224e-29
2.111516404e-29
2.111506946e-29
2.111498673e-29
2.111491403e-29
2.111484964e-29
2.111479216e-29
2.111474062e-29
2.111469446e-29
2.111465362e-29
2.111461841e-29
2.111458953e-29
2.111456793e-29
2.111455475e-29
2.111455125e-29
2.11145587e-29
2.11145783e-29
2.111461112e-29
2.111465801e-29
2.111471951e-29
2.111479581e-29
2.111488671e-29
2.111499156e-29
2.111510926e-29
2.111523827e-29
2.11153766e-29
2.111552193e-29
2.111567158e-29
2.111582266e-29
2.111597214e-29
2.111611689e-29
2.111625384e-29
2.111638003e-29
2.111649272e-29
2.111658941e-29
2.111666796e-29
2.111672663e-29
2.111676409e-29
2.111677947e-29
2.111677235e-29
2.111674278e-29
2.111669126e-29
2.111661871e-29
2.11165265e-29
2.111641632e-29
2.111629021e-29
2.111615051e-29
2.111599976e-29
2.111584067e-29
2.111567602e-29
2.111550863e-29
2.111534126e-29
2.111517652e-29
2.111501684e-29
2.111486437e-29
2.111472093e-29
2.111458798e-29
2.111446657e-29
2.111435733e-29
2.111426048e-29
2.111417585e-29
2.111410289e-29
2.111404079e-29
2.111398845e-29
2.111394465e-29
2.111390804e-29
2.11138773e-29
2.111385113e-29
2.111382839e-29
2.111380807e-29
2.111378941e-29
2.111377185e-29
2.111375505e-29
2.111373891e-29
2.11137235e-29
2.111370904e-29
2.111369589e-29
2.111368446e-29
2.111367519e-29
2.111366852e-29
2.111366484e-29
2.11136645e-29
2.111366775e-29
2.111367481e-29
2.11136858e-29
2.111370083e-29
2.111371995e-29
2.111374322e-29
2.11137707e-29
2.111380251e-29
2.111383879e-29
2.111387974e-29
2.111392562e-29
2.111397672e-29
2.111403336e-29
2.111409588e-29
2.111416457e-29
2.11142397e-29
2.111432144e-29
2.111440987e-29
2.111450494e-29
2.111460645e-29
2.111471403e-29
2.111482719e-29
2.111494523e-29
2.111506736e-29
2.111519262e-29
2.111531998e-29
2.111544832e-29
2.111557647e-29
2.111570326e-29
2.11158275e-29
2.111594805e-29
2.111606382e-29
2.111617379e-29
2.111627698e-29
2.111637251e-29
2.111645957e-29
2.111653739e-29
2.111660527e-29
2.111666257e-29
2.111670868e-29
2.111674303e-29
2.11167651e-29
2.111677444e-29
2.111677063e-29
2.111675337e-29
2.111672243e-29
2.111667775e-29
2.111661941e-29
2.111654766e-29
2.111646302e-29
2.111636621e-29
2.111625827e-29
2.111614052e-29
2.111601462e-29
2.111588255e-29
2.111574664e-29
2.11156095e-29
2.111547403e-29
2.111534331e-29
2.111522053e-29
2.111510887e-29
2.111501136e-29
2.111493074e-29
2.111486934e-29
2.111482895e-29
2.111481074e-29
2.111481525e-29
2.111484241e-29
2.111489159e-29
2.111496179e-29
2.111505177e-29
2.111516024e-29
2.111528598e-29
2.111542796e-29
2.111558527e-29
2.111575709e-29
2.111594237e-29
2.111613957e-29
2.111634626e-29
2.111655878e-29
2.111677195e-29
2.111697897e-29
2.111717165e-29
2.111734087e-29
2.111747743e-29
2.111757324e-29
2.111762275e-29
2.111762449e-29
2.111758255e-29
2.111750769e-29
2.111741795e-29
2.11173385e-29
2.11173004e-29
2.111733845e-29
2.111748796e-29
2.11177806e-29
2.11182398e-29
2.111887601e-29
2.11196825e-29
2.112063222e-29
2.112167648e-29
2.112274594e-29
2.112375432e-29
2.112460502e-29
2.112520054e-29
2.11254541e-29
2.112530283e-29
2.112472121e-29
2.112373374e-29
2.112242546e-29
2.112095017e-29
2.1119537e-29
2.1118499e-29
2.111825032e-29
2.111934143e-29
2.112251619e-29
2.112876649e-29
2.11392697e-29
2.115487345e-29
2.117418952e-29
2.118084455e-29
2.118285276e-29
2.11849197e-29
2.118704847e-29
2.118924124e-29
2.119150032e-29
2.119382835e-29
2.119622825e-29
2.119870321e-29
2.120125657e-29
2.120389182e-29
2.12066126e-29
2.12094227e-29
2.121232606e-29
2.121532683e-29
2.12184293e-29
2.122163801e-29
2.12249577e-29
2.122839333e-29
2.123195012e-29
2.123563354e-29
2.123944932e-29
2.124340349e-29
2.124750238e-29
2.125175262e-29
2.125616118e-29
2.12607354e-29
2.126548295e-29
2.127041192e-29
2.12755308e-29
2.12808485e-29
2.128637438e-29
2.129211829e-29
2.129809055e-29
2.130430204e-29
2.131076414e-29
2.131748886e-29
2.132448877e-29
2.13317771e-29
2.133936773e-29
2.134727525e-29
2.135551498e-29
2.1364103e-29
2.137305622e-29
2.138239236e-29
2.139213005e-29
2.140228886e-29
2.14128893e-29
2.142395292e-29
2.143550234e-29
2.144756129e-29
2.14601547e-29
2.147330868e-29
2.148705067e-29
2.150140945e-29
2.151641519e-29
2.153209955e-29
2.154849575e-29
2.15656386e-29
2.158356463e-29
2.160231212e-29
2.162192123e-29
2.164243402e-29
2.166389462e-29
2.168634927e-29
2.170984642e-29
2.173443686e-29
2.176017379e-29
2.178711297e-29
2.18153128e-29
2.184483448e-29
2.187574209e-29
2.190810275e-29
2.194198679e-29
2.197746782e-29
2.201462294e-29
2.205353288e-29
2.209428217e-29
2.213695929e-29
2.218165691e-29
2.222847198e-29
2.227750604e-29
2.232886536e-29
2.238266115e-29
2.243900982e-29
2.249803323e-29
2.255985889e-29
2.262462025e-29
2.269245698e-29
2.276351524e-29
2.2837948e-29
2.291591532e-29
2.299758473e-29
2.308313154e-29
2.317273922e-29
2.326659978e-29
2.336491416e-29
2.346789267e-29
2.357575542e-29
2.36887328e-29
2.380706592e-29
2.393100719e-29
2.406082082e-29
2.419678337e-29
2.433918439e-29
2.4488327e-29
2.464452856e-29
2.480812137e-29
2.497945338e-29
2.515888893e-29
2.534680961e-29
2.554361501e-29
2.574972366e-29
2.596557394e-29
2.619162503e-29
2.642835793e-29
2.667627656e-29
2.69359088e-29
2.720780773e-29
2.749255282e-29
2.779075124e-29
2.810303915e-29
2.843008318e-29
2.877258182e-29
2.913126704e-29
2.950690582e-29
2.990030188e-29
3.031229742e-29
3.074377492e-29
3.11956591e-29
3.166891883e-29
3.216456927e-29
3.268367398e-29
3.322734718e-29
3.379675604e-29
3.439312316e-29
3.501772899e-29
3.56719145e-29
3.635708384e-29
3.707470716e-29
3.782632342e-29
3.861354348e-29
3.943805308e-29
4.03016161e-29
4.120607777e-29
4.215336809e-29
4.314550531e-29
4.418459948e-29
4.527285615e-29
4.641258011e-29
4.760617931e-29
4.885616879e-29
5.016517476e-29
5.153593873e-29
5.297132182e-29
5.447430903e-29
5.604801371e-29
5.769568207e-29
5.942069778e-29
6.122658665e-29
6.311702139e-29
6.509582646e-29
6.716698298e-29
6.933463373e-29
7.160308818e-29
7.397682767e-29
7.646051057e-29
7.905897756e-29
8.177725693e-29
8.462057001e-29
8.759433658e-29
9.070418041e-29
9.395593482e-29
9.735564835e-29
1.009095904e-28
1.046242571e-28
1.08506377e-28
1.125629172e-28
1.168010891e-28
1.212283547e-28
1.258524329e-28
1.306813052e-28
1.357232228e-28
1.409867127e-28
1.464805847e-28
1.522139381e-28
1.581961684e-28
1.644369752e-28
1.709463691e-28
1.777346797e-28
1.848125635e-28
1.921910122e-28
1.998813613e-28
2.078952992e-28
2.162448768e-28
2.24942517e-28
2.340010256e-28
2.434336022e-28
2.532538517e-28
2.634757967e-28
2.741138907e-28
2.851830321e-28
2.966985785e-28
3.086763634e-28
3.21132712e-28
3.340844601e-28
3.475489731e-28
3.615441665e-28
3.760885281e-28
3.912011417e-28
4.069017129e-28
4.232105956e-28
4.40148822e-28
4.577381336e-28
4.76001015e-28
4.949607302e-28
5.146413612e-28
5.350678498e-28
5.562660423e-28
5.782627374e-28
6.010857376e-28
6.247639044e-28
6.493272173e-28
6.748068374e-28
7.012351752e-28
7.286459629e-28
7.570743331e-28
7.865569016e-28
8.171318569e-28
8.488390556e-28
8.81720125e-28
9.158185721e-28
9.511799011e-28
9.878517382e-28
1.025883966e-27
1.065328866e-27
1.106241272e-27
1.148678737e-27
1.192701703e-27
1.238373693e-27
1.285761513e-27
1.334935466e-27
1.38596958e-27
1.438941864e-27
1.493934571e-27
1.551034484e-27
1.610333229e-27
1.671927615e-27
1.735919989e-27
1.802418644e-27
1.871538248e-27
1.943400323e-27
2.018133782e-27
2.09587551e-27
2.176771043e-27
2.260975314e-27
2.348653531e-27
2.43998218e-27
2.535150208e-27
2.634360431e-27
2.737831223e-27
2.845798598e-27
2.958518804e-27
3.07627144e-27
3.199362935e-27
3.328132318e-27
3.462957901e-27
3.604265632e-27
3.752541026e-27
3.908343958e-27
4.07232829e-27
4.245267935e-27
4.428091456e-27
4.621928076e-27
4.828168972e-27
5.048549033e-27
5.285256159e-27
5.541077743e-27
5.819596827e-27
6.125453567e-27
6.464698701e-27
6.845266128e-27
7.277607095e-27
7.775541089e-27
8.357399996e-27
9.047565363e-27
9.878532892e-27
1.089368618e-26
1.215102381e-26
1.372816789e-26
1.572909488e-26
1.829318157e-26
2.160736289e-26
2.592247241e-26
3.157520517e-26
3.901763783e-26
4.885690683e-26
6.190854081e-26
7.926814622e-26
1.024077625e-25
1.333053765e-25
1.746190079e-25
2.299207031e-25
3.040110543e-25
4.033419538e-25
5.365848265e-25
7.153944013e-25
9.554353037e-25
1.2777619e-24
1.710672939e-24
2.292204344e-24
3.073479724e-24
4.12321368e-24
5.533764501e-24
7.429269294e-24
9.976577884e-24
1.339994828e-23
1.800079765e-23
2.418424765e-23
3.249480138e-23
4.366429243e-23
5.867632722e-23
7.885289289e-23
1.059707539e-22
1.424178818e-22
1.914036851e-22
2.5724154e-22
3.457284832e-22
4.646554776e-22
6.24493145e-22
8.393132969e-22
1.128027334e-21
1.516050455e-21
2.037538053e-21
2.738391019e-21
3.680294254e-21
4.94614355e-21
6.64733808e-21
8.933579721e-21
1.200604081e-20
1.613505804e-20
2.168390801e-20
2.914075438e-20
3.916157487e-20
5.262784101e-20
7.072401992e-20
9.504170907e-20
1.277195546e-19
1.716312473e-19
2.306381143e-19
3.099284968e-19
4.164737277e-19
5.596407629e-19
7.520152757e-19
1.010507505e-18
1.357837976e-18
1.824533556e-18
2.45160912e-18
3.294170284e-18
4.42625349e-18
5.947328368e-18
7.991033145e-18
1.073690986e-17
1.442616939e-17
1.938286977e-17
2.60423665e-17
3.498953115e-17
4.701009181e-17
6.315959988e-17
8.485607363e-17
1.140044461e-16
1.531637334e-16
2.057715882e-16
2.764459317e-16
3.713901231e-16
4.989371977e-16
6.702809065e-16
9.004576658e-16
1.20966553e-15
1.625035852e-15
2.18301299e-15
2.932550745e-15
3.939405813e-15
5.29190476e-15
7.108690231e-15
9.549125687e-15
1.282727115e-14
1.723065564e-14
2.314549293e-14
3.109055247e-14
4.176265727e-14
5.60978013e-14
7.535325106e-14
1.012178403e-13
1.359601459e-13
1.826275665e-13
2.453138072e-13
3.295183032e-13
4.426292214e-13
5.945725911e-13
7.98684788e-13
1.072885349e-12
1.441253675e-12
1.936148958e-12
2.601060841e-12
3.494443188e-12
4.694870745e-12
6.307976231e-12
8.475784276e-12
1.138927297e-11
1.530528337e-11
2.056928889e-11
2.764606654e-11
3.716103022e-11
4.995596087e-11
6.716419039e-11
9.031209294e-11
1.214561753e-10
1.633683671e-10
2.197865972e-10
2.957538071e-10
3.98076745e-10
5.359469019e-10
7.217807408e-10
9.723561277e-10
1.310348156e-09
1.76640233e-09
2.38192877e-09
3.212860742e-09
4.334697904e-09
5.849253439e-09
7.893649304e-09
1.065226037e-08
1.437250133e-08
1.938558506e-08
2.613366079e-08
3.520506783e-08
4.73798127e-08
6.368778849e-08
8.548270007e-08
1.145350881e-07
1.531482998e-07
2.043015935e-07
2.718248539e-07
3.60609567e-07
4.768610469e-07
6.283983988e-07
8.24917341e-07
1.078839404e-06
1.404511311e-06
1.822803186e-06
2.35695132e-06
3.036155854e-06
3.874925485e-06
4.920289017e-06
6.214755472e-06
7.806614424e-06
9.750137061e-06
1.210545651e-05
1.493967366e-05
1.832808094e-05
2.235289749e-05
2.710358542e-05
3.267477899e-05
3.927660873e-05
4.67966417e-05
5.54575062e-05
6.538932068e-05
7.685329629e-05
8.969838514e-05
0.0001041478034
0.0001202503078
0.0001379805763
0.0001570539044
0.000176987353
0.0001969498308
0.0002157312876
0.000231807975
0.0002435492643
0.0002495803402
0.0002490929629
0.0002421341275
0.0002296201272
0.0002129163811
0.0001936013155
0.0001731490324
0.0001527494575
0.0001331396241
0.0001148284931
9.830290385e-05
8.367434584e-05
7.09129232e-05
5.990049195e-05
5.048726511e-05
4.249095725e-05
3.572965119e-05
3.003295136e-05
2.530248621e-05
2.132441267e-05
1.795831212e-05
1.513908062e-05
1.277644251e-05
1.079492072e-05
9.131679587e-06
7.734429948e-06
6.560097154e-06
5.57144569e-06
4.738617592e-06
4.03628261e-06
3.443293777e-06
2.94199599e-06
2.517648257e-06
2.157940195e-06
1.852587565e-06
1.592994362e-06
1.371970887e-06
1.183498823e-06
1.02253576e-06
8.84852617e-07
7.668985155e-07
6.656884781e-07
5.787101147e-07
5.03846059e-07
4.393094714e-07
3.835903758e-07
3.35410977e-07
2.936884262e-07
2.575037622e-07
2.260759789e-07
1.987403492e-07
1.749302858e-07
1.541621453e-07
1.360224804e-07
1.201573344e-07
1.062632388e-07
9.40796329e-08
8.338247357e-08
7.397883979e-08
6.570237244e-08
5.840941408e-08
5.197573711e-08
4.629376694e-08
4.127022203e-08
3.682410543e-08
3.288499327e-08
2.939157422e-08
2.629040144e-08
2.353482464e-08
2.108407505e-08
1.890248035e-08
1.695879011e-08
1.522559553e-08
1.367882956e-08
1.229733567e-08
1.106249544e-08
9.957906454e-09
8.969103428e-09
8.083316331e-09
7.289260478e-09
6.576954043e-09
5.937559261e-09
5.363244062e-09
4.847061376e-09
4.382843722e-09
3.965111042e-09
3.588990032e-09
3.250143452e-09
2.944708113e-09
2.66924042e-09
2.42066851e-09
2.196250124e-09
1.993535507e-09
1.810334699e-09
1.644688665e-09
1.494843798e-09
1.359229369e-09
1.236437585e-09
1.125205914e-09
1.024401427e-09
9.330069037e-10
8.501084977e-10
7.748847759e-10
7.065969735e-10
6.445803221e-10
5.88236327e-10
5.370258869e-10
4.904631569e-10
4.481100737e-10
4.09571467e-10
3.744906916e-10
3.425457228e-10
3.134456634e-10
2.869276179e-10
2.627538923e-10
2.407094858e-10
2.205998412e-10
2.02248828e-10
1.854969309e-10
1.701996246e-10
1.562259123e-10
1.434570133e-10
1.317851819e-10
1.211126451e-10
1.113506463e-10
1.024185843e-10
9.424323711e-11
8.675806283e-11
7.990256887e-11
7.362174302e-11
6.786553991e-11
6.258841736e-11
5.774891747e-11
5.330928818e-11
4.9235141e-11
4.549514156e-11
4.206072955e-11
3.890586526e-11
3.600680003e-11
3.334186834e-11
3.089129941e-11
2.863704637e-11
2.656263135e-11
2.465300495e-11
2.289441869e-11
2.127430922e-11
1.978119317e-11
1.840457155e-11
1.713484299e-11
1.596322475e-11
1.488168094e-11
1.388285719e-11
1.296002125e-11
1.210700886e-11
1.131817449e-11
1.058834647e-11
9.91278609e-12
9.287150357e-12
8.707458011e-12
8.170058553e-12
7.671603984e-12
7.209023034e-12
6.779497624e-12
6.380441399e-12
6.009480111e-12
5.664433714e-12
5.343300001e-12
5.044239659e-12
4.765562601e-12
4.505715487e-12
4.263270294e-12
4.036913884e-12
3.825438447e-12
3.627732765e-12
3.442774214e-12
3.26962145e-12
3.107407704e-12
2.955334654e-12
2.812666805e-12
2.678726348e-12
2.552888443e-12
2.434576904e-12
2.323260245e-12
2.218448047e-12
2.11968764e-12
2.026561052e-12
1.938682214e-12
1.855694399e-12
1.777267868e-12
1.703097713e-12
1.632901879e-12
1.566419346e-12
1.503408464e-12
1.443645416e-12
1.386922817e-12
1.333048425e-12
1.281843948e-12
1.23314396e-12
1.186794898e-12
1.142654142e-12
1.100589169e-12
1.060476777e-12
1.022202369e-12
9.856592918e-13
9.507482381e-13
9.173766844e-13
8.854583808e-13
8.549128788e-13
8.256650976e-13
7.976449244e-13
7.707868455e-13
7.450296075e-13
7.203159047e-13
6.965920905e-13
6.738079121e-13
6.519162652e-13
6.308729678e-13
6.106365521e-13
5.911680716e-13
5.724309234e-13
5.543906841e-13
5.370149581e-13
5.202732376e-13
5.04136773e-13
4.885784531e-13
4.735726943e-13
4.590953382e-13
4.451235565e-13
4.316357633e-13
4.186115339e-13
4.060315289e-13
3.938774246e-13
3.821318483e-13
3.707783178e-13
3.598011857e-13
3.491855878e-13
3.389173946e-13
3.289831667e-13
3.193701131e-13
3.100660527e-13
3.010593781e-13
2.923390219e-13
2.838944258e-13
2.757155112e-13
2.677926522e-13
2.601166501e-13
2.526787099e-13
2.45470418e-13
2.384837217e-13
2.317109098e-13
2.251445946e-13
2.187776949e-13
2.126034201e-13
2.066152557e-13
2.008069486e-13
1.951724951e-13
1.897061275e-13
1.844023033e-13
1.792556943e-13
1.74261176e-13
1.694138182e-13
1.647088763e-13
1.60141782e-13
1.55708136e-13
1.514037002e-13
1.472243901e-13
1.431662687e-13
1.392255395e-13
1.353985408e-13
1.3168174e-13
1.280717278e-13
1.245652134e-13
1.211590195e-13
1.178500776e-13
1.146354236e-13
1.115121938e-13
1.084776207e-13
1.055290292e-13
1.026638334e-13
9.987953238e-14
9.717370788e-14
9.454402046e-14
9.198820685e-14
8.950407705e-14
8.708951158e-14
8.474245896e-14
8.246093317e-14
8.024301134e-14
7.808683144e-14
7.599059011e-14
7.395254064e-14
7.197099091e-14
7.004430153e-14
6.8170884e-14
6.634919894e-14
6.457775443e-14
6.285510438e-14
6.117984698e-14
5.955062321e-14
5.796611541e-14
5.64250459e-14
5.492617564e-14
5.346830298e-14
5.205026243e-14
5.067092345e-14
4.932918934e-14
4.802399615e-14
4.67543116e-14
4.551913407e-14
4.431749164e-14
4.314844112e-14
4.201106714e-14
4.090448128e-14
3.982782123e-14
3.878024996e-14
3.77609549e-14
3.676914723e-14
3.580406112e-14
3.486495299e-14
3.395110088e-14
3.306180373e-14
3.219638076e-14
3.135417087e-14
3.053453198e-14
2.973684053e-14
2.896049086e-14
2.820489468e-14
2.746948055e-14
2.675369337e-14
2.60569939e-14
2.537885827e-14
2.471877751e-14
2.407625714e-14
2.34508167e-14
2.284198936e-14
2.224932149e-14
2.167237231e-14
2.111071345e-14
2.056392865e-14
2.003161335e-14
1.951337436e-14
1.900882957e-14
1.851760754e-14
1.803934727e-14
1.757369786e-14
1.71203182e-14
1.667887671e-14
1.624905106e-14
1.58305279e-14
1.542300258e-14
1.502617893e-14
1.4639769e-14
1.426349283e-14
1.389707819e-14
1.354026041e-14
1.319278212e-14
1.285439306e-14
1.252484986e-14
1.220391587e-14
1.189136095e-14
1.158696129e-14
1.129049921e-14
1.100176304e-14
1.072054687e-14
1.044665046e-14
1.017987903e-14
9.920043139e-15
9.66695851e-15
9.420445899e-15
9.180330943e-15
8.946444032e-15
8.718620168e-15
8.496698841e-15
8.280523897e-15
8.069943422e-15
7.864809621e-15
7.6649787e-15
7.47031076e-15
7.280669682e-15
7.095923028e-15
6.915941933e-15
6.740601009e-15
6.569778248e-15
6.403354925e-15
6.241215513e-15
6.083247589e-15
5.929341751e-15
5.779391532e-15
5.633293324e-15
5.490946293e-15
5.352252305e-15
5.217115854e-15
5.085443987e-15
4.957146235e-15
4.832134542e-15
4.710323204e-15
4.591628801e-15
4.475970134e-15
4.363268168e-15
4.253445967e-15
4.146428644e-15
4.042143298e-15
3.940518963e-15
3.841486559e-15
3.744978832e-15
3.650930314e-15
3.559277266e-15
3.469957638e-15
3.382911019e-15
3.298078594e-15
3.215403099e-15
3.134828784e-15
3.056301366e-15
2.979767993e-15
2.905177204e-15
2.832478894e-15
2.761624272e-15
2.692565833e-15
2.625257316e-15
2.559653677e-15
2.495711051e-15
2.433386726e-15
2.372639105e-15
2.313427683e-15
2.255713013e-15
2.19945668e-15
2.144621274e-15
2.091170359e-15
2.039068454e-15
1.988281e-15
1.938774342e-15
1.890515698e-15
1.843473144e-15
1.797615583e-15
1.752912729e-15
1.709335083e-15
1.666853911e-15
1.625441227e-15
1.58506977e-15
1.545712985e-15
1.507345006e-15
1.469940639e-15
1.433475338e-15
1.397925197e-15
1.363266923e-15
1.329477828e-15
1.29653581e-15
1.264419335e-15
1.233107428e-15
1.20257965e-15
1.172816093e-15
1.143797359e-15
1.115504548e-15
1.087919248e-15
1.061023519e-15
1.034799881e-15
1.009231303e-15
9.843011901e-16
9.599933718e-16
9.362920915e-16
9.131819955e-16
8.906481216e-16
8.686758894e-16
8.472510896e-16
8.263598748e-16
8.05988749e-16
7.861245588e-16
7.667544839e-16
7.478660283e-16
7.294470115e-16
7.114855599e-16
6.939700985e-16
6.768893428e-16
6.602322905e-16
6.439882142e-16
6.281466533e-16
6.126974069e-16
5.976305262e-16
5.829363074e-16
5.686052848e-16
5.546282238e-16
5.409961138e-16
5.277001624e-16
5.147317879e-16
5.020826134e-16
4.897444604e-16
4.777093426e-16
4.659694594e-16
4.545171905e-16
4.433450893e-16
4.324458773e-16
4.218124383e-16
4.114378127e-16
4.013151917e-16
3.914379117e-16
3.817994491e-16
3.723934146e-16
3.632135479e-16
3.542537128e-16
3.455078919e-16
3.369701817e-16
3.286347879e-16
3.204960212e-16
3.125482926e-16
3.047861099e-16
2.972040743e-16
2.897968773e-16
2.825592988e-16
2.754862052e-16
2.685725488e-16
2.618133682e-16
2.552037885e-16
2.487390225e-16
2.424143707e-16
2.362252195e-16
2.301670329e-16
2.242353356e-16
2.184256785e-16
2.127335763e-16
2.071544017e-16
2.016832088e-16
1.579898302e-16
1.117989464e-16
7.922890671e-17
5.616382861e-17
3.979328461e-17
2.816805375e-17
1.991563353e-17
1.406245412e-17
9.915627041e-18
6.981454608e-18
4.908172395e-18
3.445303404e-18
2.414667666e-18
1.689663294e-18
1.180452666e-18
8.233740181e-19
5.733797688e-19
3.986415606e-19
2.767057221e-19
1.917570672e-19
1.326742648e-19
9.164958483e-20
6.321080714e-20
4.352911309e-20
2.99301326e-20
2.05490907e-20
1.408797479e-20
9.644848914e-21
6.594077735e-21
4.50243372e-21
3.070435024e-21
2.091405907e-21
1.422953705e-21
9.671348345e-22
6.566868628e-22
4.454892556e-22
3.019655574e-22
2.045283401e-22
1.384397751e-22
9.365166773e-23
6.332185361e-23
4.279682016e-23
2.89151384e-23
1.953127515e-23
1.319053506e-23
8.907476156e-24
6.015061338e-24
4.062092275e-24
2.74355276e-24
1.853353308e-24
1.252304652e-24
8.464320012e-25
5.723027184e-25
3.871071134e-25
2.619550354e-25
1.773497668e-25
1.20133056e-25
8.142296078e-26
5.522253023e-26
3.748141007e-26
2.546331619e-26
1.731872468e-26
1.179729543e-26
8.052990623e-27
5.513115679e-27
3.790058407e-27
2.621103472e-27
1.82817096e-27
1.290486817e-27
9.261119653e-28
6.793955195e-28
5.125899349e-28
4.000249789e-28
3.242541604e-28
2.734208318e-28
2.394254643e-28
2.168585129e-28
2.019995214e-28
1.923330922e-28
1.861512535e-28
1.822018359e-28
1.798023954e-28
1.784293861e-28
1.777375086e-28
1.77383217e-28
1.772951673e-28
1.773631073e-28
1.775150151e-28
1.777127368e-28
1.779101999e-28
1.78099236e-28
1.782735164e-28
1.784253816e-28
1.785638334e-28
1.786799642e-28
1.787767392e-28
1.788571605e-28
1.789236697e-28
1.789717688e-28
1.790097302e-28
1.790377652e-28
1.79056579e-28
1.790685762e-28
1.790736195e-28
1.790737338e-28
1.790703135e-28
1.790646188e-28
1.790557903e-28
1.790422854e-28
1.790297969e-28
1.790158305e-28
1.790010525e-28
1.78986583e-28
1.78973254e-28
1.789601982e-28
1.789472607e-28
1.789356218e-28
1.789230408e-28
1.789128847e-28
1.789048246e-28
1.788950469e-28
1.788897269e-28
1.788820328e-28
1.78875899e-28
1.788720386e-28
1.78866916e-28
1.78863141e-28
1.788593128e-28
1.788569685e-28
1.788529508e-28
1.788490796e-28
1.788455534e-28
1.78842546e-28
1.788390994e-28
1.788375634e-28
1.788328927e-28
1.788294304e-28
1.788249021e-28
1.788217668e-28
1.78816328e-28
1.788112936e-28
1.788071952e-28
1.788019135e-28
1.787963779e-28
1.78792134e-28
1.787887953e-28
1.787843201e-28
1.787806063e-28
1.787763889e-28
1.787730423e-28
1.787705154e-28
1.787684558e-28
1.787664142e-28
1.787632783e-28
1.787590843e-28
1.787575606e-28
1.787547761e-28
1.787534455e-28
1.787510589e-28
1.78748951e-28
1.787472564e-28
1.787456962e-28
1.78743565e-28
1.787430146e-28
1.787412357e-28
1.787399332e-28
1.787396351e-28
1.787381916e-28
1.787358901e-28
1.787347469e-28
1.787329679e-28
1.787323618e-28
1.787306396e-28
1.78730549e-28
1.787295962e-28
1.787287352e-28
1.787286065e-28
1.787281162e-28
1.787263404e-28
1.787256854e-28
1.787250137e-28
1.787249098e-28
1.787238056e-28
1.7872316e-28
1.787227486e-28
1.787227958e-28
1.787225418e-28
1.787240192e-28
1.787232148e-28
1.78722662e-28
1.787231133e-28
1.78723465e-28
1.787238921e-28
1.787246429e-28
1.787244933e-28
1.787260966e-28
1.78728305e-28
1.787283607e-28
1.787292624e-28
1.787289111e-28
1.787288935e-28
1.787302469e-28
1.78731235e-28
1.787314349e-28
1.787311544e-28
1.787332608e-28
1.787340941e-28
1.787329495e-28
1.78733504e-28
1.787355139e-28
1.787346096e-28
1.787340952e-28
1.787339012e-28
1.787347419e-28
1.787347515e-28
1.787336095e-28
1.787341334e-28
1.787349754e-28
1.787340335e-28
1.787328263e-28
1.787328386e-28
1.787327717e-28
1.787323739e-28
1.787317226e-28
1.78731672e-28
1.787297606e-28
1.787291599e-28
1.787297764e-28
1.787281598e-28
1.787274453e-28
1.787267163e-28
1.787261406e-28
1.787239169e-28
1.787261985e-28
1.787230084e-28
1.787227586e-28
1.78724264e-28
1.787222022e-28
1.787214308e-28
1.787193932e-28
1.787191857e-28
1.787183427e-28
1.787176166e-28
1.787196813e-28
1.787171826e-28
1.787162619e-28
1.787166212e-28
1.787175111e-28
1.787160728e-28
1.787151308e-28
)
;

boundaryField
{
    inlet
    {
        type            fixedValue;
        value           uniform 0;
    }
    outlet
    {
        type            zeroGradient;
    }
    wall
    {
        type            empty;
    }
}


// ************************************************************************* //
