/*--------------------------------*- C++ -*----------------------------------*\
  =========                 |
  \\      /  F ield         | OpenFOAM: The Open Source CFD Toolbox
   \\    /   O peration     | Website:  https://openfoam.org
    \\  /    A nd           | Version:  7
     \\/     M anipulation  |
\*---------------------------------------------------------------------------*/
FoamFile
{
    version     2.0;
    format      ascii;
    class       volScalarField;
    location    "0.000558243009";
    object      C3H4-P;
}
// * * * * * * * * * * * * * * * * * * * * * * * * * * * * * * * * * * * * * //

dimensions      [0 0 0 0 0 0 0];

internalField   nonuniform List<scalar> 
1500
(
1.142611142e-15
4.458881171e-15
9.185912125e-15
1.375905e-14
1.714769138e-14
1.920309574e-14
2.026358907e-14
2.0740263e-14
2.093007941e-14
2.09979364e-14
2.101995561e-14
2.102650237e-14
2.102830014e-14
2.102875921e-14
2.102886886e-14
2.102889348e-14
2.102889871e-14
2.102889975e-14
2.102889996e-14
2.102889999e-14
2.10289e-14
2.10289e-14
2.10289e-14
2.10289e-14
2.10289e-14
2.10289e-14
2.10289e-14
2.10289e-14
2.10289e-14
2.10289e-14
2.10289e-14
2.10289e-14
2.10289e-14
2.10289e-14
2.10289e-14
2.10289e-14
2.10289e-14
2.10289e-14
2.10289e-14
2.10289e-14
2.10289e-14
2.10289e-14
2.10289e-14
2.10289e-14
2.10289e-14
2.10289e-14
2.10289e-14
2.10289e-14
2.10289e-14
2.10289e-14
2.10289e-14
2.10289e-14
2.10289e-14
2.10289e-14
2.10289e-14
2.10289e-14
2.10289e-14
2.10289e-14
2.10289e-14
2.10289e-14
2.10289e-14
2.10289e-14
2.10289e-14
2.10289e-14
2.10289e-14
2.10289e-14
2.10289e-14
2.10289e-14
2.10289e-14
2.10289e-14
2.10289e-14
2.10289e-14
2.10289e-14
2.10289e-14
2.10289e-14
2.10289e-14
2.10289e-14
2.10289e-14
2.10289e-14
2.10289e-14
2.10289e-14
2.10289e-14
2.10289e-14
2.10289e-14
2.10289e-14
2.10289e-14
2.10289e-14
2.10289e-14
2.10289e-14
2.10289e-14
2.10289e-14
2.10289e-14
2.10289e-14
2.10289e-14
2.10289e-14
2.10289e-14
2.10289e-14
2.10289e-14
2.10289e-14
2.10289e-14
2.10289e-14
2.10289e-14
2.10289e-14
2.10289e-14
2.10289e-14
2.10289e-14
2.10289e-14
2.10289e-14
2.10289e-14
2.10289e-14
2.10289e-14
2.10289e-14
2.10289e-14
2.10289e-14
2.10289e-14
2.10289e-14
2.10289e-14
2.10289e-14
2.10289e-14
2.10289e-14
2.10289e-14
2.10289e-14
2.10289e-14
2.10289e-14
2.10289e-14
2.10289e-14
2.10289e-14
2.10289e-14
2.10289e-14
2.10289e-14
2.10289e-14
2.10289e-14
2.10289e-14
2.10289e-14
2.10289e-14
2.10289e-14
2.10289e-14
2.10289e-14
2.10289e-14
2.10289e-14
2.10289e-14
2.10289e-14
2.10289e-14
2.10289e-14
2.10289e-14
2.10289e-14
2.10289e-14
2.10289e-14
2.10289e-14
2.10289e-14
2.10289e-14
2.10289e-14
2.10289e-14
2.10289e-14
2.10289e-14
2.10289e-14
2.10289e-14
2.10289e-14
2.10289e-14
2.10289e-14
2.10289e-14
2.10289e-14
2.10289e-14
2.10289e-14
2.10289e-14
2.10289e-14
2.10289e-14
2.10289e-14
2.10289e-14
2.10289e-14
2.10289e-14
2.10289e-14
2.10289e-14
2.10289e-14
2.10289e-14
2.10289e-14
2.10289e-14
2.10289e-14
2.10289e-14
2.10289e-14
2.10289e-14
2.10289e-14
2.10289e-14
2.10289e-14
2.10289e-14
2.10289e-14
2.10289e-14
2.10289e-14
2.10289e-14
2.10289e-14
2.10289e-14
2.10289e-14
2.10289e-14
2.10289e-14
2.10289e-14
2.10289e-14
2.10289e-14
2.10289e-14
2.10289e-14
2.10289e-14
2.10289e-14
2.10289e-14
2.10289e-14
2.10289e-14
2.10289e-14
2.10289e-14
2.10289e-14
2.10289e-14
2.10289e-14
2.10289e-14
2.10289e-14
2.10289e-14
2.10289e-14
2.10289e-14
2.10289e-14
2.10289e-14
2.10289e-14
2.10289e-14
2.10289e-14
2.10289e-14
2.10289e-14
2.10289e-14
2.10289e-14
2.10289e-14
2.10289e-14
2.10289e-14
2.10289e-14
2.10289e-14
2.10289e-14
2.10289e-14
2.10289e-14
2.10289e-14
2.10289e-14
2.10289e-14
2.10289e-14
2.10289e-14
2.102890001e-14
2.102890003e-14
2.102890012e-14
2.102890046e-14
2.102890171e-14
2.102890602e-14
2.102891994e-14
2.102896177e-14
2.102907823e-14
2.102937642e-14
2.103007131e-14
2.103151793e-14
2.103410792e-14
2.103770726e-14
2.103890279e-14
2.103926747e-14
2.103964627e-14
2.104003998e-14
2.104044916e-14
2.104087438e-14
2.104131626e-14
2.104177548e-14
2.104225279e-14
2.104274897e-14
2.104326484e-14
2.104380128e-14
2.104435919e-14
2.104493953e-14
2.104554329e-14
2.104617153e-14
2.104682533e-14
2.104750588e-14
2.104821438e-14
2.104895212e-14
2.104972046e-14
2.105052081e-14
2.105135468e-14
2.105222364e-14
2.105312937e-14
2.105407361e-14
2.105505822e-14
2.105608516e-14
2.105715648e-14
2.105827436e-14
2.10594411e-14
2.106065913e-14
2.1061931e-14
2.106325943e-14
2.106464728e-14
2.106609757e-14
2.10676135e-14
2.106919846e-14
2.107085602e-14
2.107258997e-14
2.107440432e-14
2.10763033e-14
2.10782914e-14
2.108037336e-14
2.108255422e-14
2.108483929e-14
2.108723421e-14
2.108974495e-14
2.109237781e-14
2.10951395e-14
2.109803709e-14
2.110107809e-14
2.110427044e-14
2.110762255e-14
2.111114334e-14
2.111484222e-14
2.111872919e-14
2.112281483e-14
2.112711031e-14
2.11316275e-14
2.113637892e-14
2.114137786e-14
2.114663833e-14
2.115217521e-14
2.115800419e-14
2.11641419e-14
2.11706059e-14
2.117741477e-14
2.118458813e-14
2.119214672e-14
2.120011246e-14
2.120850849e-14
2.121735925e-14
2.122669054e-14
2.123652957e-14
2.124690507e-14
2.125784735e-14
2.126938833e-14
2.128156169e-14
2.129440291e-14
2.130794936e-14
2.132224039e-14
2.133731744e-14
2.13532241e-14
2.137000623e-14
2.138771204e-14
2.140639221e-14
2.142610002e-14
2.144689137e-14
2.146882501e-14
2.149196257e-14
2.151636868e-14
2.154211115e-14
2.156926103e-14
2.159789276e-14
2.162808431e-14
2.165991729e-14
2.169347708e-14
2.172885299e-14
2.176613836e-14
2.180543075e-14
2.184683201e-14
2.189044848e-14
2.193639113e-14
2.198477565e-14
2.203572266e-14
2.208935783e-14
2.2145812e-14
2.220522136e-14
2.226772761e-14
2.233347804e-14
2.240262575e-14
2.247532974e-14
2.255175507e-14
2.263207302e-14
2.27164612e-14
2.280510368e-14
2.289819115e-14
2.299592105e-14
2.309849764e-14
2.320613221e-14
2.331904311e-14
2.343745593e-14
2.356160353e-14
2.369172623e-14
2.382807183e-14
2.397089572e-14
2.412046096e-14
2.427703837e-14
2.444090654e-14
2.461235193e-14
2.479166889e-14
2.497915969e-14
2.517513458e-14
2.537991175e-14
2.559381735e-14
2.581718551e-14
2.605035826e-14
2.629368555e-14
2.654752516e-14
2.681224266e-14
2.708821133e-14
2.737581207e-14
2.76754333e-14
2.798747084e-14
2.831232776e-14
2.865041428e-14
2.900214755e-14
2.936795152e-14
2.974825673e-14
3.014350008e-14
3.055412465e-14
3.098057944e-14
3.142331912e-14
3.188280375e-14
3.235949853e-14
3.285387346e-14
3.336640309e-14
3.389756614e-14
3.444784519e-14
3.501772633e-14
3.56076988e-14
3.62182546e-14
3.684988815e-14
3.750309584e-14
3.817837569e-14
3.887622687e-14
3.959714936e-14
4.034164346e-14
4.11102094e-14
4.190334691e-14
4.272155474e-14
4.356533029e-14
4.443516913e-14
4.533156455e-14
4.625500719e-14
4.720598455e-14
4.818498058e-14
4.919247531e-14
5.022894438e-14
5.129485868e-14
5.239068397e-14
5.35168805e-14
5.467390266e-14
5.586219865e-14
5.708221018e-14
5.833437214e-14
5.96191124e-14
6.09368515e-14
6.228800249e-14
6.367297074e-14
6.509215376e-14
6.654594114e-14
6.803471446e-14
6.955884722e-14
7.11187049e-14
7.2714645e-14
7.434701711e-14
7.60161631e-14
7.772241729e-14
7.946610672e-14
8.124755146e-14
8.306706496e-14
8.492495452e-14
8.682152174e-14
8.875706309e-14
9.073187056e-14
9.274623232e-14
9.480043352e-14
9.689475708e-14
9.90294847e-14
1.012048978e-13
1.034212785e-13
1.05678911e-13
1.079780827e-13
1.103190855e-13
1.127022173e-13
1.151277836e-13
1.175960987e-13
1.201074881e-13
1.226622895e-13
1.252608556e-13
1.279035551e-13
1.305907758e-13
1.33322926e-13
1.361004373e-13
1.38923767e-13
1.417934004e-13
1.447098536e-13
1.476736763e-13
1.506854546e-13
1.537458142e-13
1.568554231e-13
1.600149953e-13
1.632252939e-13
1.664871348e-13
1.698013899e-13
1.731689912e-13
1.765909348e-13
1.800682844e-13
1.836021758e-13
1.871938212e-13
1.908445133e-13
1.945556302e-13
1.983286396e-13
2.021651044e-13
2.060666867e-13
2.100351539e-13
2.140723829e-13
2.181803666e-13
2.223612187e-13
2.266171797e-13
2.309506229e-13
2.3536406e-13
2.398601479e-13
2.444416948e-13
2.491116666e-13
2.53873194e-13
2.587295791e-13
2.636843029e-13
2.687410323e-13
2.73903628e-13
2.791761525e-13
2.84562877e-13
2.90068292e-13
2.956971142e-13
3.014542938e-13
3.073450251e-13
3.133747554e-13
3.195491945e-13
3.258743252e-13
3.323564126e-13
3.390020149e-13
3.458179935e-13
3.528115238e-13
3.599901063e-13
3.673615778e-13
3.749341233e-13
3.827162869e-13
3.907169862e-13
3.989455254e-13
4.074116085e-13
4.161253533e-13
4.25097308e-13
4.343384657e-13
4.438602791e-13
4.53674676e-13
4.637940772e-13
4.742314148e-13
4.850001504e-13
4.961142948e-13
5.075884278e-13
5.194377199e-13
5.316779542e-13
5.443255501e-13
5.573975876e-13
5.709118335e-13
5.848867692e-13
5.993416194e-13
6.14296384e-13
6.297718707e-13
6.45789731e-13
6.623724983e-13
6.795436296e-13
6.973275504e-13
7.157497032e-13
7.348366016e-13
7.546158892e-13
7.751164044e-13
7.963682531e-13
8.184028897e-13
8.41253208e-13
8.649536435e-13
8.895402903e-13
9.150510336e-13
9.415257019e-13
9.690062419e-13
9.975369212e-13
1.027164563e-12
1.057938818e-12
1.089912489e-12
1.123141897e-12
1.15768733e-12
1.193613559e-12
1.230990448e-12
1.269893687e-12
1.310405647e-12
1.352616405e-12
1.396624964e-12
1.442540701e-12
1.490485093e-12
1.540593787e-12
1.593019066e-12
1.647932794e-12
1.705529948e-12
1.766032843e-12
1.829696191e-12
1.896813166e-12
1.967722672e-12
2.042818056e-12
2.122557566e-12
2.207476892e-12
2.298204213e-12
2.39547826e-12
2.500169996e-12
2.613308644e-12
2.73611293e-12
2.870028607e-12
3.0167735e-12
3.178391612e-12
3.357318088e-12
3.556457244e-12
3.779276269e-12
4.029917765e-12
4.313334909e-12
4.635453787e-12
5.00336835e-12
5.425574567e-12
5.912251639e-12
6.475599722e-12
7.130245521e-12
7.89372937e-12
8.787090161e-12
9.835567743e-12
1.106944637e-11
1.252506744e-11
1.424604552e-11
1.62847283e-11
1.870394934e-11
2.157913224e-11
2.500081649e-11
2.907768915e-11
3.394022364e-11
3.974504648e-11
4.668017733e-11
5.497131608e-11
6.488938545e-11
7.675957838e-11
9.097220893e-11
1.079957239e-10
1.283923023e-10
1.528365542e-10
1.821379285e-10
2.172675585e-10
2.593904164e-10
3.099038117e-10
3.704834703e-10
4.431386644e-10
5.302781417e-10
6.347889281e-10
7.601304679e-10
9.104470125e-10
1.090701703e-09
1.30683641e-09
1.565962102e-09
1.876585364e-09
2.248877622e-09
2.694994727e-09
3.229455805e-09
3.869591656e-09
4.636074542e-09
5.553542925e-09
6.651336565e-09
7.964359333e-09
9.534089178e-09
1.140975669e-08
1.364971568e-08
1.632303086e-08
1.951130919e-08
2.331080178e-08
2.783480348e-08
3.321637531e-08
3.961141214e-08
4.720207239e-08
5.620057938e-08
6.685339274e-08
7.944573499e-08
9.4306441e-08
1.118130778e-07
1.323972596e-07
1.565500565e-07
1.848273737e-07
2.178551496e-07
2.563342068e-07
3.010445734e-07
3.528490887e-07
4.126961168e-07
4.816212063e-07
5.607475689e-07
6.512852867e-07
7.545292066e-07
8.718555269e-07
1.004717125e-06
1.154637709e-06
1.323204901e-06
1.512062355e-06
1.722901013e-06
1.957449556e-06
2.217464049e-06
2.504716778e-06
2.820983962e-06
3.168032308e-06
3.54760392e-06
3.96139935e-06
4.41105881e-06
4.898142452e-06
5.424113206e-06
5.990162347e-06
6.598011468e-06
7.247765364e-06
7.943401412e-06
8.685398854e-06
9.474613954e-06
1.029576707e-05
1.11569537e-05
1.205678887e-05
1.299331905e-05
1.396390883e-05
1.496469016e-05
1.59901618e-05
1.70321078e-05
1.807795957e-05
1.910991806e-05
2.010446989e-05
2.105099945e-05
2.188087391e-05
2.257554555e-05
2.309752544e-05
2.341563511e-05
2.348765359e-05
2.329450364e-05
2.282414223e-05
2.2074004e-05
2.107292505e-05
1.984581208e-05
1.843472487e-05
1.688884584e-05
1.526023001e-05
1.360045762e-05
1.194697394e-05
1.036053471e-05
8.860877351e-06
7.488705421e-06
6.257883116e-06
5.179044665e-06
4.253132201e-06
3.473610769e-06
2.819731464e-06
2.279160994e-06
1.840214622e-06
1.486317821e-06
1.201937935e-06
9.73886517e-07
7.912545112e-07
6.448220504e-07
5.271466711e-07
4.325698884e-07
3.578676805e-07
2.973321711e-07
2.47403565e-07
2.067382338e-07
1.73458676e-07
1.460861421e-07
1.234615684e-07
1.046751366e-07
8.902884769e-08
7.591718041e-08
6.490377144e-08
5.562269919e-08
4.777786648e-08
4.112836976e-08
3.547723959e-08
3.066269941e-08
2.655132512e-08
2.303265393e-08
2.001490781e-08
1.742158123e-08
1.518870344e-08
1.326263109e-08
1.159825985e-08
1.015756938e-08
8.908434042e-09
7.823648012e-09
6.880122507e-09
6.058222746e-09
5.341218715e-09
4.714828788e-09
4.166839492e-09
3.68678788e-09
3.265695574e-09
2.895845569e-09
2.570594504e-09
2.284214462e-09
2.031759377e-09
1.808952021e-09
1.612088228e-09
1.437955582e-09
1.283764283e-09
1.147088253e-09
1.025814913e-09
9.181022592e-10
8.223421562e-10
7.371288725e-10
6.612320901e-10
5.935737115e-10
5.332079052e-10
4.793039137e-10
4.311312215e-10
3.880467436e-10
3.494837436e-10
3.14942237e-10
2.839806682e-10
2.562086861e-10
2.312808624e-10
2.088912254e-10
1.887684965e-10
1.706719344e-10
1.543877056e-10
1.397257107e-10
1.265168055e-10
1.146103665e-10
1.038721546e-10
9.418243857e-11
8.543434572e-11
7.753241e-11
7.039129296e-11
6.393465573e-11
5.809416334e-11
5.280860492e-11
4.802311562e-11
4.368848779e-11
3.976056079e-11
3.619967973e-11
3.297021527e-11
3.004013692e-11
2.738063378e-11
2.49657771e-11
2.277221989e-11
2.077892912e-11
1.896694709e-11
1.731917839e-11
1.582019971e-11
1.445608988e-11
1.321427791e-11
1.208340706e-11
1.105321312e-11
1.011441538e-11
9.258618905e-12
8.478226947e-12
7.766362268e-12
7.116796569e-12
6.523887079e-12
5.982519567e-12
5.488057111e-12
5.036294001e-12
4.623414261e-12
4.245954299e-12
3.90076926e-12
3.585002704e-12
3.296059274e-12
3.031580031e-12
2.789420212e-12
2.56762914e-12
2.36443209e-12
2.178213902e-12
2.00750417e-12
1.850963855e-12
1.707373174e-12
1.575620644e-12
1.454693165e-12
1.343667037e-12
1.241699831e-12
1.148023016e-12
1.061935282e-12
9.827964782e-13
9.100221251e-13
8.430784246e-13
7.81477738e-13
7.247744768e-13
6.725613718e-13
6.244660829e-13
5.801481182e-13
5.392960324e-13
5.016248795e-13
4.668738955e-13
4.348043891e-13
4.051978224e-13
3.778540625e-13
3.525897895e-13
3.292370458e-13
3.076419145e-13
2.876633138e-13
2.69171898e-13
2.520490557e-13
2.361859944e-13
2.214829068e-13
2.078482081e-13
1.951978408e-13
1.834546393e-13
1.725477495e-13
1.624120981e-13
1.529879083e-13
1.442202566e-13
1.360586675e-13
1.284567428e-13
1.213718231e-13
1.14764677e-13
1.085992179e-13
1.028422435e-13
9.746319853e-14
9.243395681e-14
8.772862153e-14
8.332334274e-14
7.919614986e-14
7.532679832e-14
7.169662894e-14
6.828843904e-14
6.508636431e-14
6.207577045e-14
5.92431538e-14
5.657605023e-14
5.406295148e-14
5.16932285e-14
4.9457061e-14
4.734537288e-14
4.534977288e-14
4.346250015e-14
4.167637424e-14
3.998474917e-14
3.838147128e-14
3.686084044e-14
3.541757452e-14
3.404677658e-14
3.274390491e-14
3.15047453e-14
3.03253857e-14
2.920219282e-14
2.813179064e-14
2.711104068e-14
2.613702379e-14
2.520702341e-14
2.431851023e-14
2.346912795e-14
2.265668026e-14
2.187911884e-14
2.113453229e-14
2.042113591e-14
1.973726235e-14
1.908135293e-14
1.845194965e-14
1.784768788e-14
1.726728954e-14
1.670955684e-14
1.617336655e-14
1.565766462e-14
1.51614613e-14
1.468382659e-14
1.422388604e-14
1.378081688e-14
1.335384444e-14
1.294223886e-14
1.254531198e-14
1.216241457e-14
1.179293367e-14
1.143629018e-14
1.109193662e-14
1.075935504e-14
1.043805511e-14
1.01275723e-14
9.827466282e-15
9.537319346e-15
9.256734993e-15
8.985336612e-15
8.722766251e-15
8.468683473e-15
8.222764298e-15
7.984700214e-15
7.754197259e-15
7.530975169e-15
7.314766575e-15
7.105316272e-15
6.902380515e-15
6.705726385e-15
6.515131179e-15
6.330381853e-15
6.151274493e-15
5.97761383e-15
5.809212771e-15
5.645891979e-15
5.487479466e-15
5.333810216e-15
5.184725833e-15
5.040074206e-15
4.899709203e-15
4.763490376e-15
4.631282684e-15
4.502956237e-15
4.378386055e-15
4.257451835e-15
4.140037736e-15
4.026032177e-15
3.915327647e-15
3.807820517e-15
3.703410878e-15
3.602002372e-15
3.503502041e-15
3.407820185e-15
3.31487022e-15
3.224568555e-15
3.136834459e-15
3.051589955e-15
2.968759699e-15
2.888270882e-15
2.810053126e-15
2.73403839e-15
2.660160878e-15
2.588356955e-15
2.518565061e-15
2.450725637e-15
2.384781045e-15
2.320675503e-15
2.258355009e-15
2.197767283e-15
2.138861701e-15
2.081589236e-15
2.025902401e-15
1.971755195e-15
1.919103049e-15
1.867902778e-15
1.818112534e-15
1.769691756e-15
1.722601129e-15
1.67680254e-15
1.632259039e-15
1.588934799e-15
1.546795078e-15
1.505806183e-15
1.465935435e-15
1.427151139e-15
1.389422546e-15
1.352719827e-15
1.317014041e-15
1.282277106e-15
1.248481773e-15
1.215601599e-15
1.183610918e-15
1.152484824e-15
1.122199138e-15
1.09273039e-15
1.064055797e-15
1.036153241e-15
1.009001247e-15
9.825789635e-16
9.568661441e-16
9.318431286e-16
9.074908244e-16
8.837906897e-16
8.607247163e-16
8.382754135e-16
8.164257924e-16
7.951593505e-16
7.744600573e-16
7.5431234e-16
7.347010696e-16
7.156115476e-16
6.970294933e-16
6.789410312e-16
6.61332679e-16
6.441913357e-16
6.275042706e-16
6.112591122e-16
5.954438378e-16
5.800467629e-16
5.650565312e-16
5.504621054e-16
5.362527574e-16
5.224180596e-16
5.089478759e-16
4.958323535e-16
4.830619142e-16
4.706272469e-16
4.585192995e-16
4.467292716e-16
4.352486071e-16
4.240689875e-16
4.131823243e-16
4.025807534e-16
3.922566276e-16
3.822025114e-16
3.724111741e-16
3.628755843e-16
3.535889043e-16
3.445444844e-16
3.357358576e-16
3.271567346e-16
3.188009982e-16
3.106626991e-16
3.027360507e-16
2.950154247e-16
2.874953463e-16
2.801704904e-16
2.730356771e-16
2.660858673e-16
2.593161594e-16
2.527217848e-16
2.462981048e-16
2.400406062e-16
2.339448984e-16
2.280067099e-16
2.222218846e-16
2.165863789e-16
2.110962586e-16
2.057476956e-16
2.005369652e-16
1.95460443e-16
1.905146022e-16
1.856960112e-16
1.810013304e-16
1.7642731e-16
1.719707876e-16
1.676286855e-16
1.633980086e-16
1.592758419e-16
1.552593486e-16
1.513457677e-16
1.475324119e-16
1.438166658e-16
1.401959838e-16
1.36667888e-16
1.332299668e-16
1.298798726e-16
1.266153203e-16
1.234340856e-16
1.203340034e-16
1.17312966e-16
1.143689214e-16
1.114998724e-16
1.087038744e-16
1.059790344e-16
1.033235097e-16
1.007355059e-16
9.821327629e-17
9.575512027e-17
9.335938204e-17
9.102444948e-17
8.874875298e-17
8.653076424e-17
8.43689952e-17
8.226199692e-17
8.020835856e-17
7.820670632e-17
7.625570248e-17
7.435404441e-17
7.250046363e-17
7.069372489e-17
6.89326253e-17
6.721599343e-17
6.554268851e-17
6.391159955e-17
6.232164462e-17
6.077177e-17
5.92609495e-17
5.778818364e-17
5.635249904e-17
5.495294761e-17
5.358860599e-17
5.22585748e-17
5.096197808e-17
4.969796259e-17
4.846569728e-17
4.726437265e-17
4.60932002e-17
4.495141187e-17
4.38382595e-17
4.27530143e-17
4.169496635e-17
4.066342409e-17
3.965771381e-17
3.867717924e-17
3.772118104e-17
3.678909635e-17
3.588031841e-17
3.499425607e-17
3.413033341e-17
3.328798934e-17
3.246667721e-17
3.166586443e-17
3.088503207e-17
3.012367456e-17
2.938129928e-17
2.865742624e-17
2.795158776e-17
2.726332816e-17
2.659220337e-17
2.593778072e-17
2.529963858e-17
2.467736608e-17
2.407056282e-17
2.347883864e-17
2.290181327e-17
2.233911615e-17
2.179038611e-17
2.125527115e-17
2.073342821e-17
2.022452288e-17
1.972822925e-17
1.924422959e-17
1.87722142e-17
1.831188118e-17
1.786293618e-17
1.742509226e-17
1.699806963e-17
1.658159547e-17
1.617540378e-17
1.577923512e-17
1.539283648e-17
1.501596107e-17
1.464836816e-17
1.428982291e-17
1.394009618e-17
1.359896437e-17
1.326620927e-17
1.294161786e-17
1.262498221e-17
1.231609927e-17
1.201477073e-17
1.172080289e-17
1.143400647e-17
1.11541965e-17
1.088119215e-17
1.061481659e-17
1.035489683e-17
1.010126362e-17
9.853751252e-18
9.612197483e-18
9.376443348e-18
9.146333049e-18
8.921713817e-18
8.702435782e-18
8.488351848e-18
8.279317567e-18
8.07519102e-18
7.875832708e-18
7.681105438e-18
7.490874221e-18
7.305006175e-18
7.123370429e-18
6.94583803e-18
6.772281845e-18
6.602576445e-18
6.43659797e-18
6.274223942e-18
6.115332998e-18
5.959804538e-18
5.807518182e-18
5.658353099e-18
5.512187074e-18
5.368895372e-18
5.228349533e-18
5.090416423e-18
3.987992361e-18
2.828227266e-18
2.007372548e-18
1.424795412e-18
1.010599375e-18
7.160384547e-19
5.066752048e-19
3.580174582e-19
2.525961202e-19
1.779407254e-19
1.251512634e-19
8.788109292e-20
6.160954991e-20
4.312085617e-20
3.013075107e-20
2.101910539e-20
1.463863448e-20
1.01782076e-20
7.065302175e-21
4.89649253e-21
3.387993786e-21
2.340525776e-21
1.614394571e-21
1.111848096e-21
7.646042111e-22
5.250506947e-22
3.600466592e-22
2.465646627e-22
1.686322276e-22
1.151895104e-22
7.859127999e-23
5.356151761e-23
3.646513687e-23
2.480161594e-23
1.685353858e-23
1.144311018e-23
7.763768962e-24
5.263941378e-24
3.566927314e-24
2.415779936e-24
1.635443489e-24
1.10678628e-24
7.488185801e-25
5.065332627e-25
3.426027259e-25
2.317164898e-25
1.567244373e-25
1.060129388e-25
7.172164437e-26
4.853283324e-26
3.285017747e-26
2.224215671e-26
1.506507725e-26
1.020793277e-26
6.91976487e-27
4.692953874e-27
3.184327994e-27
2.161847308e-27
1.468569426e-27
9.983038568e-28
6.791867007e-28
4.625515765e-28
3.15441595e-28
2.155153757e-28
1.476229868e-28
1.014917818e-28
7.014737835e-29
4.885364478e-29
3.439318895e-29
2.45796557e-29
1.792544454e-29
1.342024659e-29
1.037573715e-29
8.32344174e-30
6.944979001e-30
6.020827375e-30
5.406398712e-30
5.001334896e-30
4.7366033e-30
4.566935482e-30
4.45810255e-30
4.391562795e-30
4.35303054e-30
4.333486134e-30
4.322695606e-30
4.319321033e-30
4.320410037e-30
4.323872623e-30
4.328599991e-30
4.333469187e-30
4.338144298e-30
4.342407738e-30
4.346129438e-30
4.349508622e-30
4.352366728e-30
4.354716088e-30
4.356670528e-30
4.358299956e-30
4.359456792e-30
4.360384657e-30
4.361076841e-30
4.361574064e-30
4.361917375e-30
4.362099204e-30
4.362181938e-30
4.362193971e-30
4.362173189e-30
4.362087238e-30
4.361884061e-30
4.36170854e-30
4.361517091e-30
4.361297676e-30
4.361082832e-30
4.360892115e-30
4.360702939e-30
4.360504531e-30
4.360330198e-30
4.360113629e-30
4.359952076e-30
4.3598263e-30
4.359641727e-30
4.359563857e-30
4.359420757e-30
4.359294143e-30
4.359231673e-30
4.359122982e-30
4.35905705e-30
4.358974769e-30
4.358945275e-30
4.358861425e-30
4.358783083e-30
4.35872411e-30
4.358671707e-30
4.358617896e-30
4.358634787e-30
4.358552394e-30
4.358505349e-30
4.358437303e-30
4.358413921e-30
4.358304308e-30
4.35822688e-30
4.358166563e-30
4.358103646e-30
4.357997875e-30
4.35794215e-30
4.35790631e-30
4.357828978e-30
4.357776117e-30
4.35770441e-30
4.35765302e-30
4.357626188e-30
4.357601361e-30
4.357587687e-30
4.357532322e-30
4.357446029e-30
4.357435375e-30
4.357369589e-30
4.357380703e-30
4.357319195e-30
4.35728702e-30
4.357266742e-30
4.357224206e-30
4.357186626e-30
4.357187116e-30
4.357168141e-30
4.35713852e-30
4.357135331e-30
4.357111828e-30
4.357073409e-30
4.357059619e-30
4.357022895e-30
4.357018116e-30
4.356980186e-30
4.356991555e-30
4.356979251e-30
4.35697185e-30
4.356980566e-30
4.356976793e-30
4.356929338e-30
4.356923904e-30
4.356914689e-30
4.356922709e-30
4.356892017e-30
4.356879436e-30
4.356873536e-30
4.356869776e-30
4.356861563e-30
4.356908249e-30
4.356886171e-30
4.356862725e-30
4.356872863e-30
4.356884878e-30
4.35688053e-30
4.35690433e-30
4.356894491e-30
4.356922014e-30
4.35698895e-30
4.356973732e-30
4.356992463e-30
4.356965108e-30
4.356955588e-30
4.356984445e-30
4.357009589e-30
4.357004458e-30
4.356990055e-30
4.357040526e-30
4.357058825e-30
4.357018645e-30
4.357022879e-30
4.357081878e-30
4.357045294e-30
4.357035709e-30
4.357025508e-30
4.357046023e-30
4.357051017e-30
4.357022183e-30
4.357033516e-30
4.357065616e-30
4.357037729e-30
4.357009311e-30
4.357014483e-30
4.3570242e-30
4.357013317e-30
4.357005449e-30
4.357010384e-30
4.356962255e-30
4.356952433e-30
4.356981068e-30
4.356943592e-30
4.35693163e-30
4.356924696e-30
4.356919771e-30
4.356863505e-30
4.356923405e-30
4.356852696e-30
4.356859091e-30
4.356909202e-30
4.356856198e-30
4.356841871e-30
4.356791316e-30
4.356795581e-30
4.356775958e-30
4.356760558e-30
4.356823143e-30
4.356758873e-30
4.356739679e-30
4.356754687e-30
4.356797053e-30
4.356750243e-30
4.35672421e-30
)
;

boundaryField
{
    inlet
    {
        type            fixedValue;
        value           uniform 0;
    }
    outlet
    {
        type            zeroGradient;
    }
    wall
    {
        type            empty;
    }
}


// ************************************************************************* //
