/*--------------------------------*- C++ -*----------------------------------*\
  =========                 |
  \\      /  F ield         | OpenFOAM: The Open Source CFD Toolbox
   \\    /   O peration     | Website:  https://openfoam.org
    \\  /    A nd           | Version:  7
     \\/     M anipulation  |
\*---------------------------------------------------------------------------*/
FoamFile
{
    version     2.0;
    format      ascii;
    class       volScalarField;
    location    "0.000558243009";
    object      C3H4-P_0;
}
// * * * * * * * * * * * * * * * * * * * * * * * * * * * * * * * * * * * * * //

dimensions      [0 0 0 0 0 0 0];

internalField   nonuniform List<scalar> 
1500
(
1.143409983e-15
4.461255905e-15
9.189385098e-15
1.376247524e-14
1.715027755e-14
1.92046915e-14
2.026442432e-14
2.074064288e-14
2.093023221e-14
2.099799152e-14
2.101997365e-14
2.102650778e-14
2.102830164e-14
2.10287596e-14
2.102886896e-14
2.102889351e-14
2.102889871e-14
2.102889976e-14
2.102889996e-14
2.102889999e-14
2.10289e-14
2.10289e-14
2.10289e-14
2.10289e-14
2.10289e-14
2.10289e-14
2.10289e-14
2.10289e-14
2.10289e-14
2.10289e-14
2.10289e-14
2.10289e-14
2.10289e-14
2.10289e-14
2.10289e-14
2.10289e-14
2.10289e-14
2.10289e-14
2.10289e-14
2.10289e-14
2.10289e-14
2.10289e-14
2.10289e-14
2.10289e-14
2.10289e-14
2.10289e-14
2.10289e-14
2.10289e-14
2.10289e-14
2.10289e-14
2.10289e-14
2.10289e-14
2.10289e-14
2.10289e-14
2.10289e-14
2.10289e-14
2.10289e-14
2.10289e-14
2.10289e-14
2.10289e-14
2.10289e-14
2.10289e-14
2.10289e-14
2.10289e-14
2.10289e-14
2.10289e-14
2.10289e-14
2.10289e-14
2.10289e-14
2.10289e-14
2.10289e-14
2.10289e-14
2.10289e-14
2.10289e-14
2.10289e-14
2.10289e-14
2.10289e-14
2.10289e-14
2.10289e-14
2.10289e-14
2.10289e-14
2.10289e-14
2.10289e-14
2.10289e-14
2.10289e-14
2.10289e-14
2.10289e-14
2.10289e-14
2.10289e-14
2.10289e-14
2.10289e-14
2.10289e-14
2.10289e-14
2.10289e-14
2.10289e-14
2.10289e-14
2.10289e-14
2.10289e-14
2.10289e-14
2.10289e-14
2.10289e-14
2.10289e-14
2.10289e-14
2.10289e-14
2.10289e-14
2.10289e-14
2.10289e-14
2.10289e-14
2.10289e-14
2.10289e-14
2.10289e-14
2.10289e-14
2.10289e-14
2.10289e-14
2.10289e-14
2.10289e-14
2.10289e-14
2.10289e-14
2.10289e-14
2.10289e-14
2.10289e-14
2.10289e-14
2.10289e-14
2.10289e-14
2.10289e-14
2.10289e-14
2.10289e-14
2.10289e-14
2.10289e-14
2.10289e-14
2.10289e-14
2.10289e-14
2.10289e-14
2.10289e-14
2.10289e-14
2.10289e-14
2.10289e-14
2.10289e-14
2.10289e-14
2.10289e-14
2.10289e-14
2.10289e-14
2.10289e-14
2.10289e-14
2.10289e-14
2.10289e-14
2.10289e-14
2.10289e-14
2.10289e-14
2.10289e-14
2.10289e-14
2.10289e-14
2.10289e-14
2.10289e-14
2.10289e-14
2.10289e-14
2.10289e-14
2.10289e-14
2.10289e-14
2.10289e-14
2.10289e-14
2.10289e-14
2.10289e-14
2.10289e-14
2.10289e-14
2.10289e-14
2.10289e-14
2.10289e-14
2.10289e-14
2.10289e-14
2.10289e-14
2.10289e-14
2.10289e-14
2.10289e-14
2.10289e-14
2.10289e-14
2.10289e-14
2.10289e-14
2.10289e-14
2.10289e-14
2.10289e-14
2.10289e-14
2.10289e-14
2.10289e-14
2.10289e-14
2.10289e-14
2.10289e-14
2.10289e-14
2.10289e-14
2.10289e-14
2.10289e-14
2.10289e-14
2.10289e-14
2.10289e-14
2.10289e-14
2.10289e-14
2.10289e-14
2.10289e-14
2.10289e-14
2.10289e-14
2.10289e-14
2.10289e-14
2.10289e-14
2.10289e-14
2.10289e-14
2.10289e-14
2.10289e-14
2.10289e-14
2.10289e-14
2.10289e-14
2.10289e-14
2.10289e-14
2.10289e-14
2.10289e-14
2.10289e-14
2.10289e-14
2.10289e-14
2.10289e-14
2.10289e-14
2.10289e-14
2.10289e-14
2.10289e-14
2.10289e-14
2.10289e-14
2.10289e-14
2.10289e-14
2.10289e-14
2.10289e-14
2.10289e-14
2.10289e-14
2.10289e-14
2.10289e-14
2.10289e-14
2.10289e-14
2.10289e-14
2.10289e-14
2.102890001e-14
2.102890003e-14
2.102890012e-14
2.102890046e-14
2.102890171e-14
2.102890602e-14
2.102891996e-14
2.102896185e-14
2.102907847e-14
2.102937712e-14
2.103007311e-14
2.10315221e-14
2.103411644e-14
2.103772195e-14
2.103891973e-14
2.103928483e-14
2.103966426e-14
2.104005868e-14
2.104046861e-14
2.104089459e-14
2.104133725e-14
2.104179728e-14
2.104227543e-14
2.104277248e-14
2.104328927e-14
2.104382666e-14
2.104438557e-14
2.104496694e-14
2.104557178e-14
2.104620114e-14
2.104685613e-14
2.10475379e-14
2.104824768e-14
2.104898676e-14
2.10497565e-14
2.105055831e-14
2.10513937e-14
2.105226426e-14
2.105317165e-14
2.105411764e-14
2.105510408e-14
2.105613292e-14
2.105720624e-14
2.105832622e-14
2.105949515e-14
2.106071547e-14
2.106198976e-14
2.106332071e-14
2.10647112e-14
2.106616427e-14
2.106768312e-14
2.106927114e-14
2.107093191e-14
2.107266924e-14
2.107448713e-14
2.107638983e-14
2.107838185e-14
2.108046793e-14
2.108265312e-14
2.108494275e-14
2.108734247e-14
2.108985825e-14
2.109249644e-14
2.109526372e-14
2.109816722e-14
2.110121444e-14
2.110441334e-14
2.110777237e-14
2.111130044e-14
2.111500702e-14
2.11189021e-14
2.11229963e-14
2.112730082e-14
2.113182755e-14
2.113658904e-14
2.114159861e-14
2.114687032e-14
2.115241906e-14
2.115826057e-14
2.116441152e-14
2.117088952e-14
2.117771316e-14
2.118490214e-14
2.119247725e-14
2.120046043e-14
2.120887491e-14
2.121774515e-14
2.122709704e-14
2.123695784e-14
2.124735636e-14
2.125832295e-14
2.126988963e-14
2.128209015e-14
2.129496006e-14
2.130853684e-14
2.132285991e-14
2.13379708e-14
2.135391321e-14
2.137073309e-14
2.138847877e-14
2.140720104e-14
2.142695329e-14
2.144779156e-14
2.14697747e-14
2.149296449e-14
2.151742571e-14
2.15432263e-14
2.157043747e-14
2.159913382e-14
2.162939349e-14
2.166129824e-14
2.169493364e-14
2.173038919e-14
2.176775842e-14
2.180713909e-14
2.184863325e-14
2.189234748e-14
2.193839293e-14
2.198688556e-14
2.203794621e-14
2.209170079e-14
2.21482804e-14
2.220782151e-14
2.227046606e-14
2.233636165e-14
2.240566164e-14
2.247852534e-14
2.255511812e-14
2.263561156e-14
2.272018359e-14
2.280901861e-14
2.290230767e-14
2.300024852e-14
2.31030458e-14
2.321091115e-14
2.33240633e-14
2.34427282e-14
2.356713911e-14
2.369753674e-14
2.383416928e-14
2.397729254e-14
2.412716998e-14
2.428407285e-14
2.444828015e-14
2.462007878e-14
2.479976353e-14
2.498763711e-14
2.518401021e-14
2.538920146e-14
2.560353748e-14
2.582735284e-14
2.606099004e-14
2.630479948e-14
2.655913941e-14
2.682437585e-14
2.710088254e-14
2.738904086e-14
2.768923966e-14
2.800187524e-14
2.832735112e-14
2.866607796e-14
2.901847337e-14
2.938496173e-14
2.976597402e-14
3.016194757e-14
3.057332589e-14
3.100055838e-14
3.144410011e-14
3.190441154e-14
3.238195826e-14
3.287721064e-14
3.339064358e-14
3.392273615e-14
3.447397127e-14
3.504483534e-14
3.563581789e-14
3.624741124e-14
3.688011004e-14
3.753441095e-14
3.821081221e-14
3.890981322e-14
3.963191413e-14
4.037761543e-14
4.114741749e-14
4.194182017e-14
4.276132234e-14
4.360642147e-14
4.447761319e-14
4.537539084e-14
4.630024507e-14
4.725266336e-14
4.823312966e-14
4.924212391e-14
5.028012169e-14
5.134759378e-14
5.244500582e-14
5.35728179e-14
5.473148426e-14
5.592145289e-14
5.714316528e-14
5.839705611e-14
5.968355297e-14
6.100307614e-14
6.235603837e-14
6.374284471e-14
6.516389237e-14
6.66195706e-14
6.811026059e-14
6.963633552e-14
7.119816049e-14
7.27960926e-14
7.443048107e-14
7.610166737e-14
7.780998544e-14
7.955576194e-14
8.133931653e-14
8.316096231e-14
8.50210062e-14
8.691974944e-14
8.885748816e-14
9.083451404e-14
9.285111494e-14
9.490757574e-14
9.700417913e-14
9.914120659e-14
1.013189393e-13
1.035376594e-13
1.057976509e-13
1.080992013e-13
1.104426023e-13
1.128281521e-13
1.152561561e-13
1.177269291e-13
1.202407967e-13
1.227980971e-13
1.253991833e-13
1.280444248e-13
1.307342099e-13
1.334689476e-13
1.362490706e-13
1.390750369e-13
1.41947333e-13
1.448664764e-13
1.47833018e-13
1.508475456e-13
1.539106863e-13
1.570231102e-13
1.601855332e-13
1.633987205e-13
1.666634904e-13
1.699807173e-13
1.733513362e-13
1.767763457e-13
1.80256813e-13
1.837938771e-13
1.873887539e-13
1.910427398e-13
1.947572171e-13
1.98533658e-13
2.023736297e-13
2.062787994e-13
2.102509394e-13
2.142919325e-13
2.18403777e-13
2.225885928e-13
2.268486269e-13
2.31186259e-13
2.356040082e-13
2.401045387e-13
2.446906665e-13
2.493653657e-13
2.541317754e-13
2.589932069e-13
2.639531502e-13
2.690152822e-13
2.741834736e-13
2.794617979e-13
2.848545367e-13
2.903661926e-13
2.960014946e-13
3.017654051e-13
3.076631315e-13
3.137001345e-13
3.198821381e-13
3.262151396e-13
3.327054196e-13
3.39359552e-13
3.461844148e-13
3.531872004e-13
3.603754271e-13
3.677569499e-13
3.753399732e-13
3.8313306e-13
3.911451487e-13
3.99385564e-13
4.07864032e-13
4.165906928e-13
4.255761176e-13
4.348313248e-13
4.443677916e-13
4.541974716e-13
4.643328125e-13
4.747867738e-13
4.855728459e-13
4.967050691e-13
5.081980539e-13
5.200670026e-13
5.323277309e-13
5.449966922e-13
5.580910013e-13
5.716284616e-13
5.856275919e-13
6.001076558e-13
6.150886933e-13
6.305915538e-13
6.46637932e-13
6.632504061e-13
6.804524794e-13
6.982686253e-13
7.167243364e-13
7.358461782e-13
7.55661848e-13
7.762002403e-13
7.974915194e-13
8.195672006e-13
8.424602412e-13
8.66205143e-13
8.908380698e-13
9.163969796e-13
9.429217776e-13
9.704544915e-13
9.990394742e-13
1.028723639e-12
1.059556734e-12
1.091591663e-12
1.124884858e-12
1.159496726e-12
1.195492163e-12
1.232941174e-12
1.271919598e-12
1.312509972e-12
1.354802558e-12
1.398896558e-12
1.444901573e-12
1.492939335e-12
1.543145775e-12
1.595673493e-12
1.650694721e-12
1.708404852e-12
1.76902668e-12
1.832815468e-12
1.90006503e-12
1.971115008e-12
2.046359614e-12
2.126258106e-12
2.211347354e-12
2.302256925e-12
2.399727181e-12
2.504631012e-12
2.617999909e-12
2.741055287e-12
2.875246072e-12
3.022293856e-12
3.184247105e-12
3.363546258e-12
3.563101916e-12
3.786388731e-12
4.037558174e-12
4.321573958e-12
4.644374688e-12
5.013069199e-12
5.43617115e-12
5.923880766e-12
6.488423189e-12
7.144454817e-12
7.909551263e-12
8.804793324e-12
9.855470617e-12
1.109192648e-11
1.255057244e-11
1.427510627e-11
1.631797434e-11
1.874212722e-11
2.162312716e-11
2.505167786e-11
2.913666085e-11
3.400877962e-11
3.982493281e-11
4.677346171e-11
5.508044614e-11
6.501725729e-11
7.690961716e-11
9.114846337e-11
1.082029771e-10
1.286362019e-10
1.531237637e-10
1.824763048e-10
2.17666359e-10
2.598605393e-10
3.104580758e-10
3.711369392e-10
4.439090221e-10
5.311861247e-10
6.358588238e-10
7.613906852e-10
9.119307339e-10
1.092447626e-09
1.308889586e-09
1.568374879e-09
1.879418442e-09
2.252201215e-09
2.698889843e-09
3.234015628e-09
3.874923008e-09
4.64229941e-09
5.560799998e-09
6.659782703e-09
7.974170887e-09
9.545462995e-09
1.142291062e-08
1.366488832e-08
1.634048018e-08
1.953130951e-08
2.333363864e-08
2.786076543e-08
3.324574179e-08
3.964443607e-08
4.723895603e-08
5.624144152e-08
6.689822493e-08
7.949434416e-08
9.435837527e-08
1.118675319e-07
1.324529554e-07
1.566050954e-07
1.848790543e-07
2.178997471e-07
2.563667092e-07
3.010583692e-07
3.528356044e-07
4.126444003e-07
4.815174574e-07
5.605746191e-07
6.510220345e-07
7.541500173e-07
8.713296109e-07
1.004007912e-06
1.153702237e-06
1.321993243e-06
1.510517107e-06
1.720956853e-06
1.955032903e-06
2.214492821e-06
2.50110028e-06
2.81662289e-06
3.162818899e-06
3.541422262e-06
3.954125863e-06
4.402562916e-06
4.888287359e-06
5.412756573e-06
5.977042881e-06
6.583036064e-06
7.230203565e-06
7.923783595e-06
8.664376814e-06
9.453663513e-06
1.027196309e-05
1.113049109e-05
1.202788216e-05
1.296214117e-05
1.393061571e-05
1.49294637e-05
1.595324553e-05
1.699387278e-05
1.803906495e-05
1.907167228e-05
2.006809101e-05
2.101765823e-05
2.185181855e-05
2.25512164e-05
2.307864125e-05
2.340300591e-05
2.348104766e-05
2.329311349e-05
2.282623369e-05
2.208361037e-05
2.108323547e-05
1.985599084e-05
1.844346698e-05
1.689472091e-05
1.526174245e-05
1.359649114e-05
1.194242389e-05
1.035279665e-05
8.852047356e-06
7.482875379e-06
6.256504463e-06
5.182171259e-06
4.259943524e-06
3.482052888e-06
2.831534351e-06
2.292181659e-06
1.853152371e-06
1.498330477e-06
1.21283433e-06
9.835972826e-07
7.998704231e-07
6.525018337e-07
5.341331969e-07
4.389873266e-07
3.631727309e-07
3.016637294e-07
2.512006898e-07
2.100301372e-07
1.76274137e-07
1.484650759e-07
1.254530124e-07
1.063320061e-07
9.039021495e-08
7.704187713e-08
6.583273782e-08
5.639072642e-08
4.841397436e-08
4.165646553e-08
3.59168634e-08
3.102974814e-08
2.685870341e-08
2.329083382e-08
2.02323962e-08
1.760530261e-08
1.534430998e-08
1.339475157e-08
1.17106985e-08
1.025346421e-08
8.990383148e-09
7.893810112e-09
6.940297296e-09
6.109915435e-09
5.38569199e-09
4.753144851e-09
4.199894214e-09
3.715338685e-09
3.290384294e-09
2.917217258e-09
2.589112978e-09
2.300275179e-09
2.045700142e-09
1.821061912e-09
1.622615051e-09
1.447112118e-09
1.291733523e-09
1.154027813e-09
1.031860741e-09
9.233717739e-10
8.269368991e-10
7.411367567e-10
6.647293101e-10
5.966263695e-10
5.358733974e-10
4.816321152e-10
4.331655015e-10
3.898248361e-10
3.510384958e-10
3.163022538e-10
2.851708687e-10
2.572507838e-10
2.321937814e-10
2.096914606e-10
1.894704264e-10
1.71288093e-10
1.549290185e-10
1.402017008e-10
1.269357724e-10
1.149795426e-10
1.041978413e-10
9.447012536e-11
8.568881406e-11
7.775782388e-11
7.059127814e-11
6.411236898e-11
5.825235283e-11
5.294966306e-11
4.814912512e-11
4.380126195e-11
3.986167859e-11
3.629051652e-11
3.305196943e-11
3.011385318e-11
2.74472235e-11
2.502603594e-11
2.282684308e-11
2.082852488e-11
1.901204818e-11
1.736025216e-11
1.585765679e-11
1.449029175e-11
1.324554342e-11
1.211201807e-11
1.107941935e-11
1.013843866e-11
9.280656795e-12
8.498455841e-12
7.784940112e-12
7.133865179e-12
6.53957414e-12
5.996940357e-12
5.501315982e-12
5.04848566e-12
4.634624871e-12
4.256262429e-12
3.910246708e-12
3.593715213e-12
3.304067144e-12
3.038938663e-12
2.796180571e-12
2.573838173e-12
2.370133081e-12
2.183446792e-12
2.012305842e-12
1.855368381e-12
1.711412043e-12
1.579322964e-12
1.458085841e-12
1.346774941e-12
1.244545952e-12
1.150628596e-12
1.064319942e-12
9.849783387e-13
9.120179088e-13
8.449035592e-13
7.831464479e-13
7.2629987e-13
6.739555195e-13
6.257400952e-13
5.813122132e-13
5.403596024e-13
5.025965516e-13
4.677615888e-13
4.356153681e-13
4.059387466e-13
3.785310327e-13
3.532083916e-13
3.298023908e-13
3.081586762e-13
2.881357636e-13
2.696039378e-13
2.524442476e-13
2.36547589e-13
2.218138688e-13
2.081512406e-13
1.954754073e-13
1.83708984e-13
1.727809164e-13
1.626259482e-13
1.531841358e-13
1.444004033e-13
1.362241364e-13
1.286088105e-13
1.21511651e-13
1.148933218e-13
1.08717641e-13
1.029513197e-13
9.756372401e-14
9.252665604e-14
8.781415406e-14
8.340230913e-14
7.926909712e-14
7.539422481e-14
7.175898889e-14
6.834614662e-14
6.51397973e-14
6.212527362e-14
5.928904194e-14
5.66186109e-14
5.410244754e-14
5.172990031e-14
4.949112853e-14
4.737703752e-14
4.537921914e-14
4.348989716e-14
4.170187716e-14
4.00085004e-14
3.840360161e-14
3.688147008e-14
3.543681398e-14
3.406472759e-14
3.27606611e-14
3.152039294e-14
3.034000431e-14
2.921585574e-14
2.814456557e-14
2.712299012e-14
2.614820547e-14
2.521749072e-14
2.432831252e-14
2.347831088e-14
2.266528612e-14
2.188718679e-14
2.11420986e-14
2.042823421e-14
1.974392383e-14
1.908760652e-14
1.845782221e-14
1.785320434e-14
1.727247305e-14
1.671442894e-14
1.617794723e-14
1.566197249e-14
1.516551366e-14
1.468763955e-14
1.42274746e-14
1.3784195e-14
1.335702513e-14
1.294523425e-14
1.254813337e-14
1.216507251e-14
1.179543801e-14
1.14386501e-14
1.109416069e-14
1.076145128e-14
1.0440031e-14
1.012943486e-14
9.82922205e-15
9.538974458e-15
9.258295188e-15
8.986807266e-15
8.724152402e-15
8.469989844e-15
8.223995319e-15
7.985860041e-15
7.755289795e-15
7.532004079e-15
7.315735305e-15
7.106228059e-15
6.903238406e-15
6.706533246e-15
6.515889711e-15
6.331094597e-15
6.151943848e-15
5.978242053e-15
5.809801996e-15
5.646444217e-15
5.487996618e-15
5.334294076e-15
5.185178098e-15
5.040496481e-15
4.900103005e-15
4.763857142e-15
4.631623774e-15
4.50327294e-15
4.378679592e-15
4.257723363e-15
4.140288354e-15
4.026262927e-15
3.915539517e-15
3.808014448e-15
3.70358776e-15
3.602163054e-15
3.503647328e-15
3.407950844e-15
3.31498698e-15
3.224672108e-15
3.136925467e-15
3.051669045e-15
2.96882747e-15
2.888327904e-15
2.810099942e-15
2.734075518e-15
2.660188811e-15
2.588376163e-15
2.518575994e-15
2.450728722e-15
2.384776691e-15
2.320664098e-15
2.258336927e-15
2.197742878e-15
2.138831312e-15
2.081553187e-15
2.025861e-15
1.971708737e-15
1.919051816e-15
1.86784704e-15
1.818052547e-15
1.769627766e-15
1.722533371e-15
1.676731239e-15
1.632184409e-15
1.588857044e-15
1.546714394e-15
1.505722757e-15
1.465849446e-15
1.427062758e-15
1.389331936e-15
1.352627144e-15
1.316919434e-15
1.282180717e-15
1.248383739e-15
1.215502049e-15
1.183509977e-15
1.15238261e-15
1.122095765e-15
1.092625966e-15
1.063950425e-15
1.03604702e-15
1.008894271e-15
9.824713227e-16
9.567579242e-16
9.317344114e-16
9.073816881e-16
8.836812086e-16
8.606149615e-16
8.381654527e-16
8.1631569e-16
7.950491681e-16
7.743498534e-16
7.542021703e-16
7.34590987e-16
7.155016027e-16
6.96919734e-16
6.788315032e-16
6.612234254e-16
6.440823978e-16
6.273956875e-16
6.11150921e-16
5.953360735e-16
5.799394585e-16
5.649497182e-16
5.503558135e-16
5.361470147e-16
5.223128927e-16
5.088433099e-16
4.957284119e-16
4.829586192e-16
4.705246194e-16
4.584173592e-16
4.466280368e-16
4.351480951e-16
4.239692143e-16
4.130833051e-16
4.02482502e-16
3.921591571e-16
3.821058338e-16
3.723153005e-16
3.62780525e-16
3.534946687e-16
3.444510811e-16
3.356432946e-16
3.270650188e-16
3.187101361e-16
3.105726964e-16
3.026469125e-16
2.949271553e-16
2.874079497e-16
2.800839699e-16
2.729500354e-16
2.660011067e-16
2.592322815e-16
2.52638791e-16
2.462159958e-16
2.399593824e-16
2.338645598e-16
2.279272559e-16
2.221433144e-16
2.165086914e-16
2.110194522e-16
2.056717684e-16
2.00461915e-16
1.953862673e-16
1.904412984e-16
1.856235761e-16
1.809297607e-16
1.763566022e-16
1.719009379e-16
1.675596899e-16
1.633298628e-16
1.592085416e-16
1.551928892e-16
1.512801443e-16
1.474676197e-16
1.437526996e-16
1.401328384e-16
1.36605558e-16
1.331684465e-16
1.298191565e-16
1.265554026e-16
1.233749605e-16
1.202756648e-16
1.172554077e-16
1.143121373e-16
1.114438563e-16
1.086486199e-16
1.059245352e-16
1.032697591e-16
1.006824975e-16
9.816100356e-17
9.570357649e-17
9.330856053e-17
9.097434351e-17
8.869935579e-17
8.648206903e-17
8.432099514e-17
8.221468516e-17
8.016172823e-17
7.816075055e-17
7.621041437e-17
7.430941705e-17
7.245649011e-17
7.06503983e-17
6.888993873e-17
6.717393996e-17
6.550126123e-17
6.387079157e-17
6.228144905e-17
6.073217998e-17
5.922195816e-17
5.774978415e-17
5.631468456e-17
5.491571136e-17
5.355194119e-17
5.22224747e-17
5.092643596e-17
4.966297176e-17
4.843125107e-17
4.723046444e-17
4.605982338e-17
4.491855988e-17
4.380592582e-17
4.272119245e-17
4.166364987e-17
4.063260656e-17
3.962738887e-17
3.864734056e-17
3.769182233e-17
3.676021137e-17
3.585190095e-17
3.496629998e-17
3.410283259e-17
3.326093772e-17
3.244006878e-17
3.16396932e-17
3.085929214e-17
3.009836004e-17
2.935640435e-17
2.863294512e-17
2.792751473e-17
2.723965753e-17
2.656892952e-17
2.591489807e-17
2.527714159e-17
2.465524927e-17
2.404882077e-17
2.345746595e-17
2.288080463e-17
2.231846627e-17
2.177008975e-17
2.123532314e-17
2.07138234e-17
2.02052562e-17
1.970929565e-17
1.922562408e-17
1.875393184e-17
1.829391707e-17
1.784528548e-17
1.740775016e-17
1.698103136e-17
1.656485633e-17
1.615895909e-17
1.576308024e-17
1.537696682e-17
1.500037208e-17
1.463305534e-17
1.427478177e-17
1.392532229e-17
1.358445332e-17
1.325195668e-17
1.292761939e-17
1.261123355e-17
1.230259614e-17
1.200150886e-17
1.170777805e-17
1.142121444e-17
1.114163309e-17
1.086885317e-17
1.060269786e-17
1.03429942e-17
1.008957294e-17
9.842268371e-18
9.600918251e-18
9.365363611e-18
9.135448642e-18
8.911020558e-18
8.691929467e-18
8.478028239e-18
8.269172389e-18
8.065219953e-18
7.866031378e-18
7.671469417e-18
7.481399037e-18
7.295687335e-18
7.114203477e-18
6.936818643e-18
6.763406006e-18
6.59384072e-18
6.427999934e-18
6.265762799e-18
6.107010475e-18
5.95162606e-18
5.7994944e-18
5.65050161e-18
5.504534201e-18
5.361477413e-18
5.221212373e-18
5.083611391e-18
3.9842633e-18
2.823572424e-18
2.003685337e-18
1.422013514e-18
1.00853803e-18
7.145348878e-19
5.055941593e-19
3.572504949e-19
2.520587618e-19
1.775687036e-19
1.248966629e-19
8.77088156e-20
6.149428665e-20
4.304461568e-20
3.00809122e-20
2.098692436e-20
1.461812631e-20
1.016532371e-20
7.057335919e-21
4.891655827e-21
3.385119795e-21
2.33886279e-21
1.613464931e-21
1.111352797e-21
7.643591921e-22
5.249448118e-22
3.600143203e-22
2.465682455e-22
1.68650946e-22
1.152124759e-22
7.861325162e-23
5.35803534e-23
3.648030172e-23
2.481333508e-23
1.686233664e-23
1.144957493e-23
7.768441745e-24
5.267275919e-24
3.569283102e-24
2.417431279e-24
1.63659412e-24
1.107584479e-24
7.493705951e-25
5.069143031e-25
3.428655237e-25
2.318977453e-25
1.568495513e-25
1.060994207e-25
7.178153628e-26
4.857440111e-26
3.287909654e-26
2.226232518e-26
1.507917741e-26
1.021781247e-26
6.92670188e-27
4.697832156e-27
3.187763615e-27
2.164269915e-27
1.470279144e-27
9.995114688e-28
6.800392723e-28
4.631534052e-28
3.158666045e-28
2.15815433e-28
1.478344724e-28
1.016408605e-28
7.025232967e-29
4.892750505e-29
3.444518219e-29
2.461624825e-29
1.795123017e-29
1.343847067e-29
1.038863537e-29
8.332603203e-30
6.951337171e-30
6.02549381e-30
5.409750372e-30
5.003729563e-30
4.738539104e-30
4.568526331e-30
4.459206664e-30
4.392409348e-30
4.353719047e-30
4.333930833e-30
4.32308985e-30
4.319720266e-30
4.320730658e-30
4.324147354e-30
4.328851766e-30
4.333656912e-30
4.338286845e-30
4.342546586e-30
4.346244378e-30
4.349626517e-30
4.35244221e-30
4.354781686e-30
4.356727552e-30
4.358344097e-30
4.35948778e-30
4.360408277e-30
4.361099377e-30
4.361584746e-30
4.361924955e-30
4.362104723e-30
4.362185679e-30
4.362198226e-30
4.362175668e-30
4.362089295e-30
4.361881305e-30
4.36171072e-30
4.361514953e-30
4.361297202e-30
4.361082816e-30
4.360892268e-30
4.360704415e-30
4.36050499e-30
4.360330007e-30
4.360113822e-30
4.35995072e-30
4.359827572e-30
4.359642018e-30
4.359568821e-30
4.359420005e-30
4.359297556e-30
4.359236e-30
4.35912745e-30
4.35906022e-30
4.358980351e-30
4.358948985e-30
4.358864984e-30
4.358787558e-30
4.358726836e-30
4.358676515e-30
4.358622717e-30
4.358634684e-30
4.358551887e-30
4.358508005e-30
4.358437217e-30
4.358411347e-30
4.358310076e-30
4.358232387e-30
4.358175281e-30
4.358101e-30
4.357999403e-30
4.357942134e-30
4.357906441e-30
4.357832421e-30
4.357777228e-30
4.357704193e-30
4.357654814e-30
4.357625349e-30
4.357605141e-30
4.35758783e-30
4.357534017e-30
4.357445378e-30
4.357432778e-30
4.35737376e-30
4.357372507e-30
4.357317075e-30
4.357281418e-30
4.357258759e-30
4.357224208e-30
4.357186529e-30
4.357186486e-30
4.357160638e-30
4.357138566e-30
4.357139506e-30
4.357116972e-30
4.357074332e-30
4.35706092e-30
4.357022618e-30
4.357020498e-30
4.356983174e-30
4.356994226e-30
4.356978077e-30
4.356970647e-30
4.356976384e-30
4.356974797e-30
4.356928677e-30
4.356920595e-30
4.356909195e-30
4.356916555e-30
4.356889301e-30
4.356874284e-30
4.356866506e-30
4.356869458e-30
4.356862541e-30
4.356908825e-30
4.356883892e-30
4.356863298e-30
4.356871993e-30
4.356880815e-30
4.356883579e-30
4.3569005e-30
4.356889694e-30
4.356925664e-30
4.356983708e-30
4.356973676e-30
4.356991262e-30
4.356970645e-30
4.356958479e-30
4.35698917e-30
4.357009864e-30
4.357006531e-30
4.356991781e-30
4.357042299e-30
4.357057573e-30
4.35701904e-30
4.357028064e-30
4.35708103e-30
4.357047956e-30
4.357034691e-30
4.357024936e-30
4.357047539e-30
4.35704965e-30
4.35701854e-30
4.35703364e-30
4.357062366e-30
4.357037771e-30
4.35700767e-30
4.357013646e-30
4.35701979e-30
4.357012007e-30
4.357002597e-30
4.357007972e-30
4.356960241e-30
4.356950658e-30
4.356978858e-30
4.356941224e-30
4.35693016e-30
4.356921315e-30
4.35691547e-30
4.356859561e-30
4.356926037e-30
4.356851269e-30
4.356855036e-30
4.3569066e-30
4.356854985e-30
4.356841457e-30
4.356791104e-30
4.356795091e-30
4.356775082e-30
4.356761648e-30
4.356826811e-30
4.356761097e-30
4.356740868e-30
4.356758334e-30
4.35679501e-30
4.356750334e-30
4.356726555e-30
)
;

boundaryField
{
    inlet
    {
        type            fixedValue;
        value           uniform 0;
    }
    outlet
    {
        type            zeroGradient;
    }
    wall
    {
        type            empty;
    }
}


// ************************************************************************* //
