/*--------------------------------*- C++ -*----------------------------------*\
  =========                 |
  \\      /  F ield         | OpenFOAM: The Open Source CFD Toolbox
   \\    /   O peration     | Website:  https://openfoam.org
    \\  /    A nd           | Version:  7
     \\/     M anipulation  |
\*---------------------------------------------------------------------------*/
FoamFile
{
    version     2.0;
    format      ascii;
    class       volScalarField;
    location    "0.000558243009";
    object      C3H4-A_0;
}
// * * * * * * * * * * * * * * * * * * * * * * * * * * * * * * * * * * * * * //

dimensions      [0 0 0 0 0 0 0];

internalField   nonuniform List<scalar> 
1500
(
6.89844506e-15
2.691574258e-14
5.544159068e-14
8.303205389e-14
1.034714138e-13
1.158661471e-13
1.222597493e-13
1.251328811e-13
1.262767154e-13
1.266855223e-13
1.268181454e-13
1.268575672e-13
1.2686839e-13
1.268711529e-13
1.268718127e-13
1.268719608e-13
1.268719922e-13
1.268719985e-13
1.268719997e-13
1.26872e-13
1.26872e-13
1.26872e-13
1.26872e-13
1.26872e-13
1.26872e-13
1.26872e-13
1.26872e-13
1.26872e-13
1.26872e-13
1.26872e-13
1.26872e-13
1.26872e-13
1.26872e-13
1.26872e-13
1.26872e-13
1.26872e-13
1.26872e-13
1.26872e-13
1.26872e-13
1.26872e-13
1.26872e-13
1.26872e-13
1.26872e-13
1.26872e-13
1.26872e-13
1.26872e-13
1.26872e-13
1.26872e-13
1.26872e-13
1.26872e-13
1.26872e-13
1.26872e-13
1.26872e-13
1.26872e-13
1.26872e-13
1.26872e-13
1.26872e-13
1.26872e-13
1.26872e-13
1.26872e-13
1.26872e-13
1.26872e-13
1.26872e-13
1.26872e-13
1.26872e-13
1.26872e-13
1.26872e-13
1.26872e-13
1.26872e-13
1.26872e-13
1.26872e-13
1.26872e-13
1.26872e-13
1.26872e-13
1.26872e-13
1.26872e-13
1.26872e-13
1.26872e-13
1.26872e-13
1.26872e-13
1.26872e-13
1.26872e-13
1.26872e-13
1.26872e-13
1.26872e-13
1.26872e-13
1.26872e-13
1.26872e-13
1.26872e-13
1.26872e-13
1.26872e-13
1.26872e-13
1.26872e-13
1.26872e-13
1.26872e-13
1.26872e-13
1.26872e-13
1.26872e-13
1.26872e-13
1.26872e-13
1.26872e-13
1.26872e-13
1.26872e-13
1.26872e-13
1.26872e-13
1.26872e-13
1.26872e-13
1.26872e-13
1.26872e-13
1.26872e-13
1.26872e-13
1.26872e-13
1.26872e-13
1.26872e-13
1.26872e-13
1.26872e-13
1.26872e-13
1.26872e-13
1.26872e-13
1.26872e-13
1.26872e-13
1.26872e-13
1.26872e-13
1.26872e-13
1.26872e-13
1.26872e-13
1.26872e-13
1.26872e-13
1.26872e-13
1.26872e-13
1.26872e-13
1.26872e-13
1.26872e-13
1.26872e-13
1.26872e-13
1.26872e-13
1.26872e-13
1.26872e-13
1.26872e-13
1.26872e-13
1.26872e-13
1.26872e-13
1.26872e-13
1.26872e-13
1.26872e-13
1.26872e-13
1.26872e-13
1.26872e-13
1.26872e-13
1.26872e-13
1.26872e-13
1.26872e-13
1.26872e-13
1.26872e-13
1.26872e-13
1.26872e-13
1.26872e-13
1.26872e-13
1.26872e-13
1.26872e-13
1.26872e-13
1.26872e-13
1.26872e-13
1.26872e-13
1.26872e-13
1.26872e-13
1.26872e-13
1.26872e-13
1.26872e-13
1.26872e-13
1.26872e-13
1.26872e-13
1.26872e-13
1.26872e-13
1.26872e-13
1.26872e-13
1.26872e-13
1.26872e-13
1.26872e-13
1.26872e-13
1.26872e-13
1.26872e-13
1.26872e-13
1.26872e-13
1.26872e-13
1.26872e-13
1.26872e-13
1.26872e-13
1.26872e-13
1.26872e-13
1.26872e-13
1.26872e-13
1.26872e-13
1.26872e-13
1.26872e-13
1.26872e-13
1.26872e-13
1.26872e-13
1.26872e-13
1.26872e-13
1.26872e-13
1.26872e-13
1.26872e-13
1.26872e-13
1.26872e-13
1.26872e-13
1.26872e-13
1.26872e-13
1.26872e-13
1.26872e-13
1.26872e-13
1.26872e-13
1.26872e-13
1.26872e-13
1.26872e-13
1.26872e-13
1.26872e-13
1.26872e-13
1.26872e-13
1.26872e-13
1.26872e-13
1.26872e-13
1.26872e-13
1.26872e-13
1.26872e-13
1.26872e-13
1.26872e-13
1.26872e-13
1.26872e-13
1.26872e-13
1.26872e-13
1.26872e-13
1.26872e-13
1.26872e-13
1.26872e-13
1.26872e-13
1.26872e-13
1.268720002e-13
1.268720007e-13
1.268720028e-13
1.268720103e-13
1.268720363e-13
1.268721204e-13
1.268723732e-13
1.268730768e-13
1.268748785e-13
1.268790776e-13
1.268878197e-13
1.269034719e-13
1.269252247e-13
1.269324511e-13
1.269346539e-13
1.26936943e-13
1.269393227e-13
1.269417958e-13
1.269443659e-13
1.269470365e-13
1.26949812e-13
1.269526968e-13
1.269556956e-13
1.269588135e-13
1.269620557e-13
1.269654277e-13
1.269689352e-13
1.269725844e-13
1.269763814e-13
1.269803331e-13
1.269844464e-13
1.269887286e-13
1.269931877e-13
1.269978316e-13
1.270026691e-13
1.270077092e-13
1.270129615e-13
1.27018436e-13
1.270241433e-13
1.270300947e-13
1.270363019e-13
1.270427775e-13
1.270495346e-13
1.27056587e-13
1.270639494e-13
1.270716374e-13
1.270796674e-13
1.270880565e-13
1.270968232e-13
1.271059867e-13
1.271155676e-13
1.271255874e-13
1.27136069e-13
1.271470367e-13
1.271585161e-13
1.271705344e-13
1.271831202e-13
1.271963039e-13
1.272101177e-13
1.272245957e-13
1.272397739e-13
1.272556907e-13
1.272723863e-13
1.272899037e-13
1.273082882e-13
1.273275879e-13
1.273478536e-13
1.273691392e-13
1.273915017e-13
1.274150016e-13
1.274397027e-13
1.274656728e-13
1.274929835e-13
1.275217106e-13
1.275519344e-13
1.275837397e-13
1.276172164e-13
1.276524595e-13
1.276895695e-13
1.277286526e-13
1.277698211e-13
1.278131937e-13
1.278588959e-13
1.279070602e-13
1.279578264e-13
1.280113425e-13
1.280677644e-13
1.281272567e-13
1.281899931e-13
1.282561569e-13
1.283259411e-13
1.283995494e-13
1.284771963e-13
1.285591078e-13
1.286455219e-13
1.287366891e-13
1.28832873e-13
1.289343509e-13
1.290414143e-13
1.291543697e-13
1.292735391e-13
1.293992608e-13
1.295318898e-13
1.296717986e-13
1.298193783e-13
1.299750387e-13
1.301392094e-13
1.303123405e-13
1.304949034e-13
1.306873915e-13
1.308903209e-13
1.311042317e-13
1.313296882e-13
1.3156728e-13
1.31817623e-13
1.320813601e-13
1.32359162e-13
1.326517282e-13
1.329597878e-13
1.332841005e-13
1.336254572e-13
1.339846813e-13
1.34362629e-13
1.347601909e-13
1.351782923e-13
1.356178944e-13
1.360799947e-13
1.365656285e-13
1.370758694e-13
1.376118297e-13
1.381746622e-13
1.3876556e-13
1.393857576e-13
1.400365319e-13
1.407192026e-13
1.414351329e-13
1.421857301e-13
1.429724463e-13
1.437967792e-13
1.446602719e-13
1.45564514e-13
1.46511142e-13
1.475018391e-13
1.485383364e-13
1.496224122e-13
1.50755893e-13
1.519406532e-13
1.531786152e-13
1.544717494e-13
1.558220745e-13
1.572316569e-13
1.587026105e-13
1.602370967e-13
1.618373239e-13
1.635055469e-13
1.652440666e-13
1.670552291e-13
1.689414252e-13
1.709050896e-13
1.729486998e-13
1.750747754e-13
1.772858767e-13
1.795846039e-13
1.819735956e-13
1.844555274e-13
1.870331108e-13
1.897090913e-13
1.924862469e-13
1.953673866e-13
1.983553484e-13
2.014529972e-13
2.046632235e-13
2.079889408e-13
2.114330837e-13
2.149986057e-13
2.186884769e-13
2.225056817e-13
2.264532167e-13
2.305340876e-13
2.347513076e-13
2.391078942e-13
2.436068668e-13
2.482512445e-13
2.530440428e-13
2.579882716e-13
2.630869323e-13
2.68343015e-13
2.737594963e-13
2.793393362e-13
2.850854759e-13
2.910008351e-13
2.970883095e-13
3.033507682e-13
3.097910517e-13
3.164119692e-13
3.232162965e-13
3.302067741e-13
3.373861049e-13
3.447569525e-13
3.523219394e-13
3.600836453e-13
3.680446059e-13
3.762073113e-13
3.845742054e-13
3.931476846e-13
4.019300971e-13
4.109237431e-13
4.201308738e-13
4.29553692e-13
4.391943522e-13
4.490549612e-13
4.591375793e-13
4.694442212e-13
4.799768575e-13
4.907374171e-13
5.017277888e-13
5.129498243e-13
5.244053412e-13
5.36096126e-13
5.480239384e-13
5.601905152e-13
5.725975751e-13
5.852468237e-13
5.981399592e-13
6.112786782e-13
6.246646824e-13
6.382996859e-13
6.521854222e-13
6.663236527e-13
6.807161753e-13
6.953648333e-13
7.102715255e-13
7.254382163e-13
7.408669467e-13
7.565598458e-13
7.725191429e-13
7.887471804e-13
8.052464271e-13
8.220194921e-13
8.390691398e-13
8.56398305e-13
8.740101091e-13
8.919078768e-13
9.100951537e-13
9.285757239e-13
9.473536297e-13
9.664331904e-13
9.858190231e-13
1.005516064e-12
1.025529589e-12
1.045865238e-12
1.066529038e-12
1.087527426e-12
1.108867274e-12
1.130555918e-12
1.15260118e-12
1.175011399e-12
1.197795457e-12
1.220962809e-12
1.244523514e-12
1.268488265e-12
1.292868421e-12
1.317676038e-12
1.342923905e-12
1.36862558e-12
1.39479542e-12
1.421448623e-12
1.448601262e-12
1.476270327e-12
1.504473761e-12
1.533230504e-12
1.562560532e-12
1.592484903e-12
1.623025798e-12
1.654206572e-12
1.686051799e-12
1.718587312e-12
1.751840276e-12
1.785839222e-12
1.820614089e-12
1.856196294e-12
1.892618782e-12
1.929916088e-12
1.968124394e-12
2.007281592e-12
2.047427343e-12
2.088603144e-12
2.130852387e-12
2.174220431e-12
2.218754667e-12
2.264504593e-12
2.31152187e-12
2.359860423e-12
2.409576511e-12
2.460728812e-12
2.513378499e-12
2.56758935e-12
2.623427838e-12
2.680963204e-12
2.740267563e-12
2.80141601e-12
2.864486727e-12
2.929561096e-12
2.996723819e-12
3.066063033e-12
3.137670444e-12
3.211641459e-12
3.288075326e-12
3.367075281e-12
3.448748711e-12
3.533207312e-12
3.620567269e-12
3.710949444e-12
3.804479571e-12
3.901288474e-12
4.001512293e-12
4.105292735e-12
4.212777341e-12
4.324119774e-12
4.439480144e-12
4.559025357e-12
4.6829295e-12
4.811374271e-12
4.94454946e-12
5.082653485e-12
5.225893999e-12
5.374488576e-12
5.528665492e-12
5.68866462e-12
5.854738457e-12
6.027153314e-12
6.206190687e-12
6.39214886e-12
6.585344772e-12
6.786116206e-12
6.99482436e-12
7.211856876e-12
7.43763141e-12
7.672599869e-12
7.917253418e-12
8.172128437e-12
8.437813603e-12
8.714958318e-12
9.004282762e-12
9.306589891e-12
9.622779763e-12
9.953866671e-12
1.030099963e-11
1.066548692e-11
1.104882542e-11
1.145273586e-11
1.187920495e-11
1.233053596e-11
1.280940941e-11
1.331895578e-11
1.386284284e-11
1.444538043e-11
1.507164613e-11
1.574763631e-11
1.648044726e-11
1.72784928e-11
1.815176549e-11
1.911215038e-11
2.017380165e-11
2.135359506e-11
2.267167117e-11
2.415208784e-11
2.582360376e-11
2.772061955e-11
2.988430793e-11
3.236397098e-11
3.521867026e-11
3.851918434e-11
4.235035971e-11
4.681393391e-11
5.203192558e-11
5.815070539e-11
6.534588408e-11
7.382818163e-11
8.385047408e-11
9.571625377e-11
1.09789786e-10
1.265083017e-10
1.463966323e-10
1.700847764e-10
1.983289816e-10
2.320370448e-10
2.722986693e-10
3.20421888e-10
3.779767578e-10
4.468477693e-10
5.292967018e-10
6.280379908e-10
7.463290833e-10
8.88078738e-10
1.057976803e-09
1.261649693e-09
1.505846593e-09
1.798662407e-09
2.149804578e-09
2.570912311e-09
3.075938307e-09
3.681605011e-09
4.407949633e-09
5.27897478e-09
6.323424642e-09
7.575710204e-09
9.07701114e-09
1.087658683e-08
1.303333444e-08
1.561763837e-08
1.871356242e-08
2.242144422e-08
2.686096036e-08
3.21747405e-08
3.853261938e-08
4.613662724e-08
5.522683052e-08
6.608814687e-08
7.90582692e-08
9.453684402e-08
1.12996056e-07
1.349927751e-07
1.611824207e-07
1.92334688e-07
2.293512649e-07
2.732856354e-07
3.253650215e-07
3.870144563e-07
4.59882897e-07
5.458711922e-07
6.471615992e-07
7.662484133e-07
9.059691337e-07
1.069535444e-06
1.260563159e-06
1.483100171e-06
1.741651377e-06
2.04119954e-06
2.3872211e-06
2.785696067e-06
3.243111335e-06
3.766457009e-06
4.363215643e-06
5.041344608e-06
5.809252128e-06
6.675767791e-06
7.650108566e-06
8.741841522e-06
9.960844507e-06
1.131726608e-05
1.282148582e-05
1.448407654e-05
1.631576826e-05
1.832741611e-05
2.05299719e-05
2.293446121e-05
2.555196981e-05
2.839364811e-05
3.147075816e-05
3.479315951e-05
3.837661693e-05
4.222393749e-05
4.637397168e-05
5.08402967e-05
5.564566883e-05
6.068500517e-05
6.604468232e-05
7.173837367e-05
7.778052499e-05
8.418745537e-05
9.097625313e-05
9.816665018e-05
0.0001057808884
0.0001138416182
0.0001223734958
0.0001313946088
0.0001410960727
0.0001511520262
0.0001617474799
0.0001729091863
0.0001847963206
0.0001970960254
0.0002098629685
0.0002228710492
0.0002356319037
0.0002472739336
0.000256553923
0.0002618383883
0.0002613833729
0.0002538183225
0.0002387232602
0.0002168937174
0.0001905160443
0.0001619735629
0.00013391323
0.0001081020342
8.560053005e-05
6.677477736e-05
5.151960444e-05
3.938039128e-05
2.985007795e-05
2.252890794e-05
1.695914525e-05
1.275023813e-05
9.587346944e-06
7.214535662e-06
5.439308929e-06
4.108973887e-06
3.107968138e-06
2.363406225e-06
1.801102447e-06
1.372884308e-06
1.049448731e-06
8.045282426e-07
6.185713774e-07
4.770156664e-07
3.689869621e-07
2.86373419e-07
2.229911596e-07
1.742605352e-07
1.366966619e-07
1.076616808e-07
8.515486632e-08
6.765580391e-08
5.400688147e-08
4.332503651e-08
3.49353436e-08
2.832094555e-08
2.308523953e-08
1.892327145e-08
1.560005834e-08
1.29341335e-08
1.078503524e-08
9.043778306e-09
7.625584977e-09
6.464330636e-09
5.508292535e-09
4.716890513e-09
4.058184042e-09
3.506946787e-09
3.043182862e-09
2.650981388e-09
2.317630564e-09
2.032931133e-09
1.788663253e-09
1.578171625e-09
1.396041879e-09
1.237847545e-09
1.099951685e-09
9.793509542e-10
8.735526412e-10
7.804774129e-10
6.98382126e-10
6.257983475e-10
5.614832007e-10
5.043799099e-10
4.535859978e-10
4.083275408e-10
3.679382351e-10
3.318422965e-10
2.995404269e-10
2.705982428e-10
2.446366894e-10
2.213240616e-10
2.003693321e-10
1.815165471e-10
1.64540097e-10
1.492407096e-10
1.354420409e-10
1.229877619e-10
1.117390622e-10
1.015725005e-10
9.237814985e-11
8.40579907e-11
7.652451547e-11
6.969951289e-11
6.351300659e-11
5.790232601e-11
5.281129135e-11
4.818949716e-11
4.399168126e-11
4.017716809e-11
3.67093766e-11
3.355538479e-11
3.068554364e-11
2.807313447e-11
2.569406439e-11
2.352659533e-11
2.155110265e-11
1.974985993e-11
1.810684681e-11
1.660757736e-11
1.523894655e-11
1.398909292e-11
1.284727548e-11
1.180376344e-11
1.084973723e-11
9.977199736e-12
9.178896485e-12
8.448243935e-12
7.779264998e-12
7.166530992e-12
6.605109394e-12
6.090516754e-12
5.61867627e-12
5.185879513e-12
4.788751904e-12
4.424221543e-12
4.089491062e-12
3.782012192e-12
3.499462773e-12
3.239725961e-12
3.000871428e-12
2.78113833e-12
2.5789199e-12
2.392749483e-12
2.221287888e-12
2.063311917e-12
1.91770397e-12
1.783442605e-12
1.659593981e-12
1.545304082e-12
1.439791658e-12
1.342341813e-12
1.252300178e-12
1.169067608e-12
1.092095365e-12
1.020880734e-12
9.549630322e-13
8.939199766e-13
8.373643757e-13
7.849411162e-13
7.363244157e-13
6.912153204e-13
6.49339421e-13
6.104447708e-13
5.742999855e-13
5.406925089e-13
5.094270292e-13
4.803240331e-13
4.532184846e-13
4.279586175e-13
4.044048319e-13
3.824286855e-13
3.6191197e-13
3.427458674e-13
3.248301772e-13
3.080726091e-13
2.923881357e-13
2.776983995e-13
2.639311694e-13
2.510198435e-13
2.389029928e-13
2.27523943e-13
2.168303912e-13
2.067740545e-13
1.973103472e-13
1.883980852e-13
1.799992145e-13
1.720785616e-13
1.646036052e-13
1.575442658e-13
1.508727128e-13
1.445631874e-13
1.385918396e-13
1.329365786e-13
1.275769354e-13
1.224939361e-13
1.176699861e-13
1.130887625e-13
1.087351167e-13
1.045949831e-13
1.006552963e-13
9.690391464e-14
9.332954929e-14
8.992169973e-14
8.667059381e-14
8.356713282e-14
8.060284073e-14
7.776981757e-14
7.506069633e-14
7.246860339e-14
6.998712192e-14
6.761025819e-14
6.533241049e-14
6.314834048e-14
6.105314676e-14
5.904224042e-14
5.711132258e-14
5.525636356e-14
5.347358368e-14
5.175943556e-14
5.011058773e-14
4.852390945e-14
4.699645679e-14
4.552545964e-14
4.410830978e-14
4.274254977e-14
4.142586277e-14
4.0156063e-14
3.8931087e-14
3.774898551e-14
3.66079159e-14
3.55061352e-14
3.444199366e-14
3.341392869e-14
3.242045936e-14
3.146018117e-14
3.053176128e-14
2.963393404e-14
2.876549685e-14
2.792530631e-14
2.711227465e-14
2.632536635e-14
2.55635951e-14
2.482602086e-14
2.411174721e-14
2.341991878e-14
2.274971899e-14
2.210036777e-14
2.147111963e-14
2.086126166e-14
2.027011179e-14
1.969701714e-14
1.914135243e-14
1.860251856e-14
1.807994119e-14
1.757306954e-14
1.70813751e-14
1.660435059e-14
1.614150884e-14
1.569238182e-14
1.525651973e-14
1.483349009e-14
1.442287692e-14
1.402427998e-14
1.363731403e-14
1.326160813e-14
1.289680502e-14
1.254256045e-14
1.219854266e-14
1.186443179e-14
1.153991939e-14
1.122470791e-14
1.091851024e-14
1.062104927e-14
1.033205748e-14
1.005127653e-14
9.77845692e-15
9.513357578e-15
9.255745563e-15
9.005395733e-15
8.762090432e-15
8.525619208e-15
8.295778526e-15
8.072371511e-15
7.855207692e-15
7.644102762e-15
7.438878351e-15
7.239361801e-15
7.045385962e-15
6.856788992e-15
6.673414161e-15
6.49510967e-15
6.321728479e-15
6.153128134e-15
5.98917061e-15
5.829722154e-15
5.674653141e-15
5.523837928e-15
5.37715472e-15
5.234485441e-15
5.095715604e-15
4.960734196e-15
4.829433558e-15
4.701709277e-15
4.577460075e-15
4.456587709e-15
4.338996873e-15
4.224595097e-15
4.113292662e-15
4.005002505e-15
3.89964014e-15
3.797123571e-15
3.697373215e-15
3.600311825e-15
3.505864415e-15
3.413958193e-15
3.324522487e-15
3.237488684e-15
3.15279016e-15
3.070362225e-15
2.990142059e-15
2.912068655e-15
2.836082764e-15
2.762126843e-15
2.690144999e-15
2.62008294e-15
2.551887932e-15
2.485508741e-15
2.4208956e-15
2.358000155e-15
2.296775428e-15
2.237175774e-15
2.179156841e-15
2.122675533e-15
2.067689972e-15
2.01415946e-15
1.962044446e-15
1.911306494e-15
1.861908244e-15
1.813813389e-15
1.766986634e-15
1.721393677e-15
1.677001172e-15
1.633776704e-15
1.591688761e-15
1.550706711e-15
1.510800771e-15
1.471941988e-15
1.434102211e-15
1.397254068e-15
1.361370948e-15
1.326426972e-15
1.292396979e-15
1.2592565e-15
1.226981742e-15
1.195549566e-15
1.16493747e-15
1.13512357e-15
1.106086582e-15
1.077805807e-15
1.050261112e-15
1.023432914e-15
9.973021673e-16
9.718503447e-16
9.470594253e-16
9.229118791e-16
8.993906535e-16
8.764791598e-16
8.541612604e-16
8.324212556e-16
8.112438717e-16
7.906142493e-16
7.705179311e-16
7.509408512e-16
7.318693238e-16
7.132900329e-16
6.951900218e-16
6.775566834e-16
6.603777499e-16
6.43641284e-16
6.273356696e-16
6.114496024e-16
5.959720821e-16
5.808924034e-16
5.662001479e-16
5.518851764e-16
5.379376213e-16
5.243478787e-16
5.111066014e-16
4.982046921e-16
4.856332961e-16
4.733837947e-16
4.614477992e-16
4.498171439e-16
4.384838807e-16
4.274402726e-16
4.166787884e-16
4.061920966e-16
3.959730605e-16
3.860147323e-16
3.763103486e-16
3.668533248e-16
3.576372508e-16
3.486558858e-16
3.399031538e-16
3.313731395e-16
3.230600835e-16
3.149583784e-16
3.070625645e-16
2.993673258e-16
2.918674864e-16
2.845580064e-16
2.774339785e-16
2.70490624e-16
2.637232901e-16
2.571274457e-16
2.506986787e-16
2.444326926e-16
2.383253033e-16
2.323724363e-16
2.265701236e-16
2.209145011e-16
2.154018055e-16
2.100283717e-16
2.047906303e-16
1.996851052e-16
1.947084106e-16
1.898572491e-16
1.85128409e-16
1.805187623e-16
1.760252622e-16
1.716449413e-16
1.67374909e-16
1.632123502e-16
1.591545223e-16
1.551987543e-16
1.513424441e-16
1.475830572e-16
1.439181247e-16
1.403452416e-16
1.368620651e-16
1.334663129e-16
1.301557617e-16
1.269282458e-16
1.237816552e-16
1.207139343e-16
1.177230808e-16
1.148071437e-16
1.119642225e-16
1.091924653e-16
1.064900684e-16
1.038552739e-16
1.012863695e-16
9.878168685e-17
9.633960029e-17
9.395852603e-17
9.163692088e-17
8.937328124e-17
8.716614204e-17
8.501407578e-17
8.291569147e-17
8.086963377e-17
7.887458199e-17
7.692924923e-17
7.503238145e-17
7.318275667e-17
7.13791841e-17
6.962050333e-17
6.790558355e-17
6.623332278e-17
6.46026471e-17
6.301250992e-17
6.14618913e-17
5.994979722e-17
5.847525892e-17
5.703733224e-17
5.563509699e-17
5.426765627e-17
5.293413594e-17
5.163368398e-17
5.03654699e-17
4.91286842e-17
4.792253782e-17
4.674626158e-17
4.559910567e-17
4.448033914e-17
4.338924938e-17
4.232514168e-17
4.128733868e-17
4.027517998e-17
3.928802161e-17
3.832523567e-17
3.738620979e-17
3.647034681e-17
3.557706429e-17
3.47057941e-17
3.385598208e-17
3.302708756e-17
3.221858304e-17
3.142995377e-17
3.06606974e-17
2.991032357e-17
2.91783536e-17
2.846432007e-17
2.77677665e-17
2.7088247e-17
2.642532588e-17
2.577857735e-17
2.514758512e-17
2.453194211e-17
2.393125006e-17
2.334511921e-17
2.277316792e-17
2.22150224e-17
2.167031626e-17
2.113869024e-17
2.061979184e-17
2.011327496e-17
1.961879952e-17
1.91360312e-17
1.866464098e-17
1.820430489e-17
1.775470362e-17
1.731552219e-17
1.688644971e-17
1.646717904e-17
1.605740658e-17
1.56568321e-17
1.526515859e-17
1.488209227e-17
1.450734261e-17
1.414062254e-17
1.378164868e-17
1.343014164e-17
1.30858263e-17
1.274843176e-17
1.241769079e-17
1.209333806e-17
1.177510643e-17
1.146271967e-17
8.965518725e-18
6.363075738e-18
4.520624581e-18
3.21025303e-18
2.277522888e-18
1.613877056e-18
1.142108211e-18
8.071206527e-19
5.695610126e-19
4.013237971e-19
2.823504519e-19
1.983396689e-19
1.391069551e-19
9.74089211e-20
6.810100599e-20
4.75345385e-20
3.312561074e-20
2.304714725e-20
1.600924767e-20
1.11027076e-20
7.687709841e-21
5.314752892e-21
3.668573297e-21
2.5284332e-21
1.740043566e-21
1.195747315e-21
8.205549685e-22
5.623222634e-22
3.848526435e-22
2.630628177e-22
1.795999484e-22
1.224792125e-22
8.34367247e-23
5.678341696e-23
3.860888241e-23
2.622935139e-23
1.780559912e-23
1.207895129e-23
8.189188903e-24
5.549160576e-24
3.758583635e-24
2.544879718e-24
1.722628202e-24
1.165819987e-24
7.888973363e-25
5.338148519e-25
3.61220635e-25
2.444527759e-25
1.654567813e-25
1.120123284e-25
7.585088591e-26
5.137932645e-26
3.481493407e-26
2.359969496e-26
1.600378237e-26
1.0857341e-26
7.369121561e-27
5.003877747e-27
3.399437461e-27
2.310609006e-27
1.571406751e-27
1.069349671e-27
7.282572525e-28
4.964438081e-28
3.388534721e-28
2.317072268e-28
1.588520387e-28
1.093139756e-28
7.56359172e-29
5.274910578e-29
3.720167197e-29
2.665173693e-29
1.95002416e-29
1.465941254e-29
1.139286052e-29
9.180908758e-30
7.695754474e-30
6.706447211e-30
6.044489006e-30
5.610662211e-30
5.319920955e-30
5.133332313e-30
5.015789521e-30
4.948008592e-30
4.89955304e-30
4.872483408e-30
4.858594333e-30
4.8529069e-30
4.851863734e-30
4.853402983e-30
4.856117169e-30
4.858952969e-30
4.861793716e-30
4.864875642e-30
4.867513289e-30
4.869841481e-30
4.871930053e-30
4.873843116e-30
4.874910834e-30
4.875920661e-30
4.876661182e-30
4.877217391e-30
4.877648987e-30
4.877773881e-30
4.877828687e-30
4.877807141e-30
4.8778119e-30
4.877742209e-30
4.877338683e-30
4.877022113e-30
4.87678949e-30
4.876500638e-30
4.876194565e-30
4.875935329e-30
4.875722058e-30
4.87544327e-30
4.875238727e-30
4.87491266e-30
4.874720785e-30
4.874576092e-30
4.874261506e-30
4.874232396e-30
4.874031518e-30
4.873806464e-30
4.873786911e-30
4.873587464e-30
4.873568868e-30
4.873416711e-30
4.873469853e-30
4.873311629e-30
4.873173587e-30
4.873126244e-30
4.873013925e-30
4.872951812e-30
4.873149292e-30
4.872979786e-30
4.872925491e-30
4.872808557e-30
4.872852339e-30
4.872547366e-30
4.872442328e-30
4.872318602e-30
4.87234348e-30
4.872083096e-30
4.872050363e-30
4.872048992e-30
4.87190337e-30
4.871825661e-30
4.871677597e-30
4.87161762e-30
4.871610144e-30
4.871610487e-30
4.871671902e-30
4.871612739e-30
4.871424487e-30
4.871466766e-30
4.871278955e-30
4.871458962e-30
4.871224859e-30
4.871190118e-30
4.871215232e-30
4.871035814e-30
4.871007756e-30
4.871003945e-30
4.871032727e-30
4.870965767e-30
4.870910745e-30
4.870894654e-30
4.870874335e-30
4.87091138e-30
4.870792287e-30
4.870817749e-30
4.870707819e-30
4.870760296e-30
4.870718955e-30
4.870775809e-30
4.870795004e-30
4.870822631e-30
4.870652451e-30
4.870667012e-30
4.870645036e-30
4.870719114e-30
4.870636802e-30
4.870583741e-30
4.870579329e-30
4.870572731e-30
4.870549336e-30
4.870723266e-30
4.870645777e-30
4.870553386e-30
4.870567748e-30
4.870629413e-30
4.870576883e-30
4.870638271e-30
4.870605837e-30
4.870668049e-30
4.870857199e-30
4.870785586e-30
4.870833546e-30
4.870746186e-30
4.870671313e-30
4.870760509e-30
4.870828513e-30
4.870801922e-30
4.870769181e-30
4.870882221e-30
4.870898807e-30
4.870792783e-30
4.870797738e-30
4.870943332e-30
4.870812705e-30
4.870822268e-30
4.870766182e-30
4.870826256e-30
4.870855339e-30
4.870783866e-30
4.870807178e-30
4.870917384e-30
4.87084009e-30
4.870764343e-30
4.870796084e-30
4.87084848e-30
4.870804267e-30
4.870814101e-30
4.870833813e-30
4.870699893e-30
4.870681928e-30
4.870792852e-30
4.870700321e-30
4.870685676e-30
4.870706201e-30
4.870719789e-30
4.870562543e-30
4.870675252e-30
4.870556767e-30
4.87060864e-30
4.870765422e-30
4.870619573e-30
4.870597953e-30
4.870468021e-30
4.870515568e-30
4.870442829e-30
4.870418888e-30
4.870606776e-30
4.870430511e-30
4.870380109e-30
4.87046315e-30
4.870651792e-30
4.870446561e-30
4.870382805e-30
)
;

boundaryField
{
    inlet
    {
        type            fixedValue;
        value           uniform 0;
    }
    outlet
    {
        type            zeroGradient;
    }
    wall
    {
        type            empty;
    }
}


// ************************************************************************* //
