/*--------------------------------*- C++ -*----------------------------------*\
  =========                 |
  \\      /  F ield         | OpenFOAM: The Open Source CFD Toolbox
   \\    /   O peration     | Website:  https://openfoam.org
    \\  /    A nd           | Version:  7
     \\/     M anipulation  |
\*---------------------------------------------------------------------------*/
FoamFile
{
    version     2.0;
    format      ascii;
    class       volScalarField;
    location    "0.000558243009";
    object      C3H4-A;
}
// * * * * * * * * * * * * * * * * * * * * * * * * * * * * * * * * * * * * * //

dimensions      [0 0 0 0 0 0 0];

internalField   nonuniform List<scalar> 
1500
(
6.89362548e-15
2.690141529e-14
5.542063746e-14
8.30113887e-14
1.034558109e-13
1.158565195e-13
1.222547101e-13
1.251305892e-13
1.262757936e-13
1.266851898e-13
1.268180365e-13
1.268575346e-13
1.268683809e-13
1.268711506e-13
1.268718121e-13
1.268719607e-13
1.268719922e-13
1.268719985e-13
1.268719997e-13
1.268719999e-13
1.26872e-13
1.26872e-13
1.26872e-13
1.26872e-13
1.26872e-13
1.26872e-13
1.26872e-13
1.26872e-13
1.26872e-13
1.26872e-13
1.26872e-13
1.26872e-13
1.26872e-13
1.26872e-13
1.26872e-13
1.26872e-13
1.26872e-13
1.26872e-13
1.26872e-13
1.26872e-13
1.26872e-13
1.26872e-13
1.26872e-13
1.26872e-13
1.26872e-13
1.26872e-13
1.26872e-13
1.26872e-13
1.26872e-13
1.26872e-13
1.26872e-13
1.26872e-13
1.26872e-13
1.26872e-13
1.26872e-13
1.26872e-13
1.26872e-13
1.26872e-13
1.26872e-13
1.26872e-13
1.26872e-13
1.26872e-13
1.26872e-13
1.26872e-13
1.26872e-13
1.26872e-13
1.26872e-13
1.26872e-13
1.26872e-13
1.26872e-13
1.26872e-13
1.26872e-13
1.26872e-13
1.26872e-13
1.26872e-13
1.26872e-13
1.26872e-13
1.26872e-13
1.26872e-13
1.26872e-13
1.26872e-13
1.26872e-13
1.26872e-13
1.26872e-13
1.26872e-13
1.26872e-13
1.26872e-13
1.26872e-13
1.26872e-13
1.26872e-13
1.26872e-13
1.26872e-13
1.26872e-13
1.26872e-13
1.26872e-13
1.26872e-13
1.26872e-13
1.26872e-13
1.26872e-13
1.26872e-13
1.26872e-13
1.26872e-13
1.26872e-13
1.26872e-13
1.26872e-13
1.26872e-13
1.26872e-13
1.26872e-13
1.26872e-13
1.26872e-13
1.26872e-13
1.26872e-13
1.26872e-13
1.26872e-13
1.26872e-13
1.26872e-13
1.26872e-13
1.26872e-13
1.26872e-13
1.26872e-13
1.26872e-13
1.26872e-13
1.26872e-13
1.26872e-13
1.26872e-13
1.26872e-13
1.26872e-13
1.26872e-13
1.26872e-13
1.26872e-13
1.26872e-13
1.26872e-13
1.26872e-13
1.26872e-13
1.26872e-13
1.26872e-13
1.26872e-13
1.26872e-13
1.26872e-13
1.26872e-13
1.26872e-13
1.26872e-13
1.26872e-13
1.26872e-13
1.26872e-13
1.26872e-13
1.26872e-13
1.26872e-13
1.26872e-13
1.26872e-13
1.26872e-13
1.26872e-13
1.26872e-13
1.26872e-13
1.26872e-13
1.26872e-13
1.26872e-13
1.26872e-13
1.26872e-13
1.26872e-13
1.26872e-13
1.26872e-13
1.26872e-13
1.26872e-13
1.26872e-13
1.26872e-13
1.26872e-13
1.26872e-13
1.26872e-13
1.26872e-13
1.26872e-13
1.26872e-13
1.26872e-13
1.26872e-13
1.26872e-13
1.26872e-13
1.26872e-13
1.26872e-13
1.26872e-13
1.26872e-13
1.26872e-13
1.26872e-13
1.26872e-13
1.26872e-13
1.26872e-13
1.26872e-13
1.26872e-13
1.26872e-13
1.26872e-13
1.26872e-13
1.26872e-13
1.26872e-13
1.26872e-13
1.26872e-13
1.26872e-13
1.26872e-13
1.26872e-13
1.26872e-13
1.26872e-13
1.26872e-13
1.26872e-13
1.26872e-13
1.26872e-13
1.26872e-13
1.26872e-13
1.26872e-13
1.26872e-13
1.26872e-13
1.26872e-13
1.26872e-13
1.26872e-13
1.26872e-13
1.26872e-13
1.26872e-13
1.26872e-13
1.26872e-13
1.26872e-13
1.26872e-13
1.26872e-13
1.26872e-13
1.26872e-13
1.26872e-13
1.26872e-13
1.26872e-13
1.26872e-13
1.26872e-13
1.26872e-13
1.26872e-13
1.26872e-13
1.26872e-13
1.26872e-13
1.26872e-13
1.26872e-13
1.26872e-13
1.26872e-13
1.26872e-13
1.26872e-13
1.268720002e-13
1.268720007e-13
1.268720028e-13
1.268720103e-13
1.268720363e-13
1.268721203e-13
1.268723727e-13
1.268730753e-13
1.268748744e-13
1.268790668e-13
1.268877945e-13
1.269034205e-13
1.26925136e-13
1.269323489e-13
1.269345491e-13
1.269368345e-13
1.269392098e-13
1.269416785e-13
1.269442439e-13
1.269469099e-13
1.269496805e-13
1.269525602e-13
1.269555537e-13
1.269586661e-13
1.269619026e-13
1.269652686e-13
1.269687699e-13
1.269724125e-13
1.269762027e-13
1.269801473e-13
1.269842532e-13
1.269885277e-13
1.269929787e-13
1.269976142e-13
1.270024429e-13
1.270074738e-13
1.270127164e-13
1.270181809e-13
1.270238777e-13
1.27029818e-13
1.270360138e-13
1.270424773e-13
1.270492217e-13
1.270562609e-13
1.270636095e-13
1.27071283e-13
1.270792977e-13
1.270876708e-13
1.270964207e-13
1.271055667e-13
1.271151291e-13
1.271251295e-13
1.271355908e-13
1.271465371e-13
1.271579941e-13
1.271699887e-13
1.271825496e-13
1.271957072e-13
1.272094935e-13
1.272239426e-13
1.272390903e-13
1.27254975e-13
1.272716368e-13
1.272891186e-13
1.273074656e-13
1.273267257e-13
1.273469497e-13
1.273681913e-13
1.273905075e-13
1.274139584e-13
1.274386079e-13
1.274645235e-13
1.274917766e-13
1.275204429e-13
1.275506025e-13
1.275823401e-13
1.276157452e-13
1.276509127e-13
1.276879428e-13
1.277269415e-13
1.277680208e-13
1.278112992e-13
1.278569018e-13
1.279049608e-13
1.279556158e-13
1.280090143e-13
1.280653119e-13
1.281246728e-13
1.281872704e-13
1.282532875e-13
1.283229166e-13
1.283963611e-13
1.284738348e-13
1.285555634e-13
1.286417842e-13
1.287327473e-13
1.288287155e-13
1.289299656e-13
1.290367884e-13
1.291494899e-13
1.292683912e-13
1.293938298e-13
1.295261601e-13
1.296657538e-13
1.29813001e-13
1.299683107e-13
1.301321116e-13
1.303048529e-13
1.304870049e-13
1.306790599e-13
1.308815332e-13
1.310949635e-13
1.31319914e-13
1.315569732e-13
1.318067557e-13
1.320699031e-13
1.323470847e-13
1.326389987e-13
1.329463728e-13
1.33269965e-13
1.336105648e-13
1.33968994e-13
1.343461073e-13
1.347427935e-13
1.351599762e-13
1.355986146e-13
1.360597047e-13
1.365442798e-13
1.370534114e-13
1.375882101e-13
1.381498264e-13
1.387394514e-13
1.393583176e-13
1.400076995e-13
1.406889148e-13
1.414033241e-13
1.421523327e-13
1.429373903e-13
1.43759992e-13
1.446216785e-13
1.455240371e-13
1.464687015e-13
1.474573526e-13
1.484917187e-13
1.495735756e-13
1.50704747e-13
1.518871047e-13
1.531225684e-13
1.544131059e-13
1.557607329e-13
1.571675131e-13
1.586355578e-13
1.601670255e-13
1.617641218e-13
1.634290988e-13
1.651642545e-13
1.669719324e-13
1.688545204e-13
1.708144505e-13
1.728541975e-13
1.749762783e-13
1.771832505e-13
1.794777118e-13
1.81862298e-13
1.843396823e-13
1.869125737e-13
1.895837153e-13
1.923558826e-13
1.952318824e-13
1.982145503e-13
2.013067493e-13
2.045113676e-13
2.078313167e-13
2.112695294e-13
2.148289573e-13
2.185125688e-13
2.223233467e-13
2.26264286e-13
2.303383913e-13
2.345486741e-13
2.38898151e-13
2.433898404e-13
2.480267603e-13
2.528119255e-13
2.577483453e-13
2.628390206e-13
2.680869411e-13
2.734950831e-13
2.790664066e-13
2.848038528e-13
2.907103417e-13
2.967887691e-13
3.030420048e-13
3.094728898e-13
3.160842341e-13
3.228788144e-13
3.298593722e-13
3.370286117e-13
3.443891976e-13
3.519437538e-13
3.596948618e-13
3.676450587e-13
3.757968366e-13
3.84152641e-13
3.927148704e-13
4.014858752e-13
4.104679574e-13
4.196633706e-13
4.290743198e-13
4.387029617e-13
4.485514057e-13
4.586217141e-13
4.689159041e-13
4.794359488e-13
4.901837791e-13
5.011612864e-13
5.123703244e-13
5.238127128e-13
5.354902404e-13
5.474046687e-13
5.595577363e-13
5.719511636e-13
5.845866575e-13
5.974659176e-13
6.105906415e-13
6.239625317e-13
6.375833028e-13
6.514546884e-13
6.655784499e-13
6.799563846e-13
6.945903349e-13
7.094821983e-13
7.246339375e-13
7.40047591e-13
7.557252853e-13
7.716692463e-13
7.878818124e-13
8.043654479e-13
8.211227566e-13
8.381564969e-13
8.55469597e-13
8.730651708e-13
8.909465347e-13
9.091172249e-13
9.275810157e-13
9.463419382e-13
9.654042997e-13
9.847727042e-13
1.004452073e-12
1.024447669e-12
1.044765113e-12
1.065410415e-12
1.086389994e-12
1.107710701e-12
1.129379849e-12
1.151405238e-12
1.173795183e-12
1.196558538e-12
1.219704732e-12
1.243243794e-12
1.267186386e-12
1.291543832e-12
1.316328156e-12
1.34155211e-12
1.367229211e-12
1.393373778e-12
1.420000965e-12
1.447126801e-12
1.474768228e-12
1.502943142e-12
1.531670428e-12
1.560970011e-12
1.590862891e-12
1.621371191e-12
1.652518205e-12
1.684328441e-12
1.716827669e-12
1.75004298e-12
1.784002832e-12
1.81873709e-12
1.854277092e-12
1.890655702e-12
1.92790737e-12
1.96606819e-12
2.00517596e-12
2.045270248e-12
2.086392448e-12
2.128585852e-12
2.171895711e-12
2.216369306e-12
2.262056017e-12
2.309007391e-12
2.357277231e-12
2.406921668e-12
2.457999247e-12
2.51057101e-12
2.564700593e-12
2.620454318e-12
2.677901278e-12
2.737113431e-12
2.798165711e-12
2.861136134e-12
2.926105909e-12
2.993159559e-12
3.062385037e-12
3.133873857e-12
3.207721228e-12
3.284026195e-12
3.362891782e-12
3.444425156e-12
3.528737789e-12
3.61594563e-12
3.706169298e-12
3.799534277e-12
3.89617113e-12
3.996215729e-12
4.099809499e-12
4.207099692e-12
4.318239672e-12
4.433389235e-12
4.552714963e-12
4.676390604e-12
4.804597506e-12
4.937525092e-12
5.075371399e-12
5.218343679e-12
5.366659089e-12
5.520545466e-12
5.680242222e-12
5.846001371e-12
6.018088709e-12
6.196785191e-12
6.382388526e-12
6.575215038e-12
6.775601854e-12
6.983909467e-12
7.200524757e-12
7.425864559e-12
7.660379879e-12
7.904560902e-12
8.158942927e-12
8.424113436e-12
8.7007205e-12
8.989482816e-12
9.291201668e-12
9.606775228e-12
9.937215646e-12
1.028366949e-11
1.064744224e-11
1.103002755e-11
1.143314241e-11
1.185876921e-11
1.23092062e-11
1.2787128e-11
1.329565823e-11
1.383845659e-11
1.441982341e-11
1.504482511e-11
1.571944486e-11
1.645076337e-11
1.724717602e-11
1.811865354e-11
1.90770551e-11
2.013650419e-11
2.131384014e-11
2.262916027e-11
2.410647106e-11
2.57744702e-11
2.766748578e-11
2.982660433e-11
3.230102552e-11
3.514968919e-11
3.844322927e-11
4.226632037e-11
4.672049582e-11
5.192753173e-11
5.803351074e-11
6.521370163e-11
7.367841856e-11
8.368005607e-11
9.552153543e-11
1.095664449e-10
1.262512131e-10
1.460997213e-10
1.697408427e-10
1.97929494e-10
2.315718973e-10
2.71755895e-10
3.197873218e-10
3.772336398e-10
4.459762786e-10
5.282734095e-10
6.268352188e-10
7.44914153e-10
8.864130917e-10
1.056014978e-09
1.259338125e-09
1.503122226e-09
1.795451071e-09
2.146019115e-09
2.566450406e-09
3.07067998e-09
3.675409742e-09
4.400653056e-09
5.270384911e-09
6.313317591e-09
7.56382532e-09
9.063045556e-09
1.086018937e-08
1.301409887e-08
1.5595096e-08
1.868717414e-08
2.2390592e-08
2.682493844e-08
3.213274648e-08
3.848374571e-08
4.607985362e-08
5.516101806e-08
6.601203511e-08
7.897047765e-08
9.443588015e-08
1.128803325e-07
1.348606397e-07
1.610322035e-07
1.921647718e-07
2.291601857e-07
2.730722219e-07
3.25128585e-07
3.867550436e-07
4.596016223e-07
5.455706666e-07
6.468464778e-07
7.659260849e-07
9.056505781e-07
1.069236286e-06
1.260304944e-06
1.482911897e-06
1.741571298e-06
2.041277272e-06
2.387520033e-06
2.786296085e-06
3.244111832e-06
3.767980165e-06
4.36540991e-06
5.044388326e-06
5.813357179e-06
6.681183189e-06
7.657123869e-06
8.750789961e-06
9.972105752e-06
1.133126858e-05
1.283870867e-05
1.450505089e-05
1.634107823e-05
1.835769927e-05
2.056591926e-05
2.297681702e-05
2.560153118e-05
2.845126578e-05
3.15373408e-05
3.487035359e-05
3.846513203e-05
4.232833191e-05
4.64913662e-05
5.09670815e-05
5.577324777e-05
6.083180487e-05
6.621036337e-05
7.192274416e-05
7.79840107e-05
8.441108405e-05
9.12215354e-05
9.843546386e-05
0.0001060751031
0.0001141619324
0.0001227166432
0.0001317572821
0.0001414813246
0.0001515523256
0.0001621633861
0.0001733299358
0.0001852240369
0.0001975108529
0.0002102692181
0.0002232797859
0.000236168002
0.0002479221586
0.0002573750482
0.0002628145364
0.0002623646332
0.0002545359311
0.000238895007
0.0002162295005
0.0001890887742
0.0001600249347
0.0001317662586
0.0001060093105
8.373924463e-05
6.524406709e-05
5.033746415e-05
3.844823863e-05
2.914060611e-05
2.200175585e-05
1.656801608e-05
1.246209679e-05
9.372505833e-06
7.050163308e-06
5.307101759e-06
4.000111805e-06
3.016982479e-06
2.292157923e-06
1.74558539e-06
1.327414447e-06
1.012360002e-06
7.744787692e-07
5.943895701e-07
4.576685682e-07
3.535779045e-07
2.742051514e-07
2.133735512e-07
1.66677778e-07
1.307307926e-07
1.029764572e-07
8.148122619e-08
6.477932484e-08
5.175725677e-08
4.156738864e-08
3.356313016e-08
2.725020743e-08
2.224996273e-08
1.827166104e-08
1.509155631e-08
1.253703968e-08
1.047461534e-08
8.800763032e-09
7.434983445e-09
6.314494428e-09
5.390179348e-09
4.623486379e-09
3.984051039e-09
3.447869808e-09
2.995894336e-09
2.612947183e-09
2.286883792e-09
2.00794335e-09
1.768244809e-09
1.561394653e-09
1.382180859e-09
1.226333471e-09
1.090336745e-09
9.71281318e-10
8.667475068e-10
7.747128588e-10
6.934786648e-10
6.216113213e-10
5.578953596e-10
5.012956666e-10
4.509269694e-10
4.060290796e-10
3.659467203e-10
3.30113011e-10
2.980358865e-10
2.692868743e-10
2.434917795e-10
2.203229166e-10
1.994926018e-10
1.807476773e-10
1.638648842e-10
1.486469358e-10
1.34919172e-10
1.225266985e-10
1.113319303e-10
1.012124773e-10
9.205931567e-11
8.377520437e-11
7.627330782e-11
6.947599596e-11
6.331379582e-11
5.772447332e-11
5.265222751e-11
4.804698194e-11
4.38637604e-11
4.006213593e-11
3.660574368e-11
3.346184972e-11
3.060096863e-11
2.799652405e-11
2.56245469e-11
2.346340683e-11
2.14935729e-11
1.96974002e-11
1.805893928e-11
1.65637659e-11
1.519882873e-11
1.395231301e-11
1.281351843e-11
1.177274965e-11
1.0821218e-11
9.950953321e-12
9.154724674e-12
8.425969113e-12
7.758727581e-12
7.147587221e-12
6.587629416e-12
6.074382975e-12
5.603781919e-12
5.172127409e-12
4.776053379e-12
4.412495517e-12
4.078663238e-12
3.772014353e-12
3.490232174e-12
3.231204802e-12
2.993006384e-12
2.773880145e-12
2.572223029e-12
2.386571775e-12
2.215590304e-12
2.058058281e-12
1.912860744e-12
1.778978689e-12
1.655480529e-12
1.541514337e-12
1.436300807e-12
1.339126843e-12
1.249339754e-12
1.166341954e-12
1.089586158e-12
1.018571004e-12
9.528370693e-13
8.919632448e-13
8.355634317e-13
7.832835339e-13
7.347987162e-13
6.898109051e-13
6.480465102e-13
6.092543456e-13
5.732037332e-13
5.39682772e-13
5.084967578e-13
4.794667402e-13
4.524282041e-13
4.272298654e-13
4.037325696e-13
3.818082855e-13
3.613391847e-13
3.422167991e-13
3.243412507e-13
3.076205461e-13
2.919699311e-13
2.77311299e-13
2.635726496e-13
2.506875929e-13
2.385948941e-13
2.27238057e-13
2.165649423e-13
2.065274163e-13
1.970810307e-13
1.881847265e-13
1.798005644e-13
1.718934758e-13
1.644310353e-13
1.57383251e-13
1.507223724e-13
1.444227138e-13
1.38460492e-13
1.328136774e-13
1.274618566e-13
1.223861068e-13
1.175688796e-13
1.12993895e-13
1.08646043e-13
1.045112935e-13
1.005766137e-13
9.682989146e-14
9.32598652e-14
8.985605921e-14
8.660872409e-14
8.350878195e-14
8.054777586e-14
7.771782334e-14
7.501157345e-14
7.242216729e-14
6.994320157e-14
6.756869499e-14
6.529305728e-14
6.311106062e-14
6.101781329e-14
5.90087353e-14
5.707953601e-14
5.522619331e-14
5.344493454e-14
5.173221878e-14
5.008472054e-14
4.849931461e-14
4.697306218e-14
4.550319788e-14
4.408711787e-14
4.27223688e-14
4.140663759e-14
4.013774197e-14
3.891362174e-14
3.773233065e-14
3.659202889e-14
3.549097611e-14
3.442752499e-14
3.340011521e-14
3.240726795e-14
3.144758067e-14
3.051972237e-14
2.962242912e-14
2.875449991e-14
2.791479283e-14
2.71022215e-14
2.631575172e-14
2.555439838e-14
2.481722259e-14
2.410332898e-14
2.341186321e-14
2.27420096e-14
2.209298899e-14
2.146405669e-14
2.085450056e-14
2.026363926e-14
1.969082059e-14
1.913541991e-14
1.859683871e-14
1.807450323e-14
1.756786321e-14
1.707639064e-14
1.659957871e-14
1.61369407e-14
1.5688009e-14
1.525233419e-14
1.482948417e-14
1.441904332e-14
1.402061172e-14
1.363380445e-14
1.325825088e-14
1.2893594e-14
1.253948986e-14
1.219560693e-14
1.18616256e-14
1.153723764e-14
1.122214572e-14
1.091606294e-14
1.061871238e-14
1.03298267e-14
1.004914775e-14
9.776426173e-15
9.511421079e-15
9.253899673e-15
9.003636955e-15
8.760415411e-15
8.524024717e-15
8.294261468e-15
8.070928907e-15
7.853836678e-15
7.642800586e-15
7.437642363e-15
7.238189454e-15
7.044274805e-15
6.855736665e-15
6.672418394e-15
6.494168277e-15
6.320839355e-15
6.152289253e-15
5.988380019e-15
5.828977974e-15
5.67395356e-15
5.523181201e-15
5.376539166e-15
5.233909439e-15
5.095177592e-15
4.96023267e-15
4.828967067e-15
4.701276421e-15
4.577059507e-15
4.45621813e-15
4.338657028e-15
4.224283778e-15
4.113008704e-15
4.004744785e-15
3.899407574e-15
3.796915114e-15
3.69718786e-15
3.6001486e-15
3.505722384e-15
3.413836452e-15
3.324420165e-15
3.237404939e-15
3.152724184e-15
3.070313236e-15
2.990109303e-15
2.912051406e-15
2.836080322e-15
2.762138532e-15
2.690170167e-15
2.620120961e-15
2.551938199e-15
2.485570672e-15
2.420968632e-15
2.358083746e-15
2.296869056e-15
2.237278935e-15
2.179269051e-15
2.122796324e-15
2.067818893e-15
2.014296078e-15
1.962188343e-15
1.911457268e-15
1.862065507e-15
1.813976768e-15
1.767155771e-15
1.721568225e-15
1.677180798e-15
1.633961088e-15
1.591877595e-15
1.550899699e-15
1.510997628e-15
1.472142439e-15
1.434305993e-15
1.397460928e-15
1.361580641e-15
1.326639265e-15
1.292611647e-15
1.259473329e-15
1.227200523e-15
1.195770101e-15
1.165159568e-15
1.135347048e-15
1.106311265e-15
1.078031525e-15
1.050487705e-15
1.023660227e-15
9.97530052e-16
9.720786597e-16
9.472880348e-16
9.231406535e-16
8.996194686e-16
8.767078972e-16
8.543898066e-16
8.326495025e-16
8.114717162e-16
7.908415928e-16
7.707446799e-16
7.511669157e-16
7.32094619e-16
7.135144779e-16
6.954135396e-16
6.777792008e-16
6.605991976e-16
6.438615962e-16
6.275547839e-16
6.116674598e-16
5.961886268e-16
5.811075827e-16
5.664139121e-16
5.520974788e-16
5.381484178e-16
5.245571279e-16
5.113142647e-16
4.984107331e-16
4.858376809e-16
4.735864917e-16
4.61648779e-16
4.500163794e-16
4.386813467e-16
4.276359459e-16
4.168726477e-16
4.063841224e-16
3.961632351e-16
3.862030398e-16
3.764967745e-16
3.670378563e-16
3.578198766e-16
3.48836596e-16
3.400819399e-16
3.315499944e-16
3.232350012e-16
3.151313543e-16
3.07233595e-16
2.995364086e-16
2.920346201e-16
2.847231907e-16
2.775972141e-16
2.706519126e-16
2.638826341e-16
2.572848486e-16
2.508541447e-16
2.445862266e-16
2.38476911e-16
2.325221242e-16
2.267178989e-16
2.210603715e-16
2.155457793e-16
2.101704579e-16
2.049308385e-16
1.998234454e-16
1.948448933e-16
1.899918853e-16
1.852612102e-16
1.806497403e-16
1.761544293e-16
1.717723101e-16
1.675004927e-16
1.633361619e-16
1.592765757e-16
1.553190633e-16
1.51461023e-16
1.476999204e-16
1.440332869e-16
1.404587177e-16
1.369738701e-16
1.335764622e-16
1.302642708e-16
1.270351302e-16
1.238869307e-16
1.208176169e-16
1.178251863e-16
1.149076883e-16
1.120632224e-16
1.092899368e-16
1.065860277e-16
1.039497375e-16
1.013793539e-16
9.887320837e-17
9.642967551e-17
9.404717146e-17
9.172415304e-17
8.945911667e-17
8.725059726e-17
8.509716728e-17
8.299743574e-17
8.095004727e-17
7.895368114e-17
7.700705039e-17
7.510890095e-17
7.325801079e-17
7.145318905e-17
6.969327527e-17
6.797713855e-17
6.630367685e-17
6.467181616e-17
6.308050982e-17
6.152873781e-17
6.0015506e-17
5.853984555e-17
5.71008122e-17
5.569748564e-17
5.432896891e-17
5.299438774e-17
5.169289e-17
5.04236451e-17
4.918584344e-17
4.797869582e-17
4.680143296e-17
4.565330494e-17
4.453358068e-17
4.344154748e-17
4.237651048e-17
4.133779223e-17
4.032473219e-17
3.933668629e-17
3.837302649e-17
3.743314033e-17
3.651643053e-17
3.562231451e-17
3.475022405e-17
3.389960487e-17
3.30699162e-17
3.226063041e-17
3.147123268e-17
3.070122052e-17
2.99501035e-17
2.921740283e-17
2.8502651e-17
2.780539145e-17
2.71251782e-17
2.646157549e-17
2.581415746e-17
2.518250775e-17
2.456621922e-17
2.396489356e-17
2.337814097e-17
2.28055798e-17
2.22468362e-17
2.170154379e-17
2.116934331e-17
2.064988226e-17
2.014281458e-17
1.964780024e-17
1.916450495e-17
1.86925998e-17
1.823176087e-17
1.778166895e-17
1.734200916e-17
1.691247062e-17
1.649274617e-17
1.608253204e-17
1.568152759e-17
1.528943502e-17
1.49059591e-17
1.453080693e-17
1.416368768e-17
1.380431222e-17
1.345239277e-17
1.310764232e-17
1.276977402e-17
1.243850042e-17
1.211353265e-17
1.179458016e-17
1.148135209e-17
8.976407471e-18
6.375020759e-18
4.529835957e-18
3.217072996e-18
2.282493097e-18
1.617448534e-18
1.144641305e-18
8.088953565e-19
5.707899045e-19
4.021651383e-19
2.829200674e-19
1.987210403e-19
1.393594198e-19
9.757411226e-20
6.820777841e-20
4.760265541e-20
3.316845192e-20
2.307366648e-20
1.602536668e-20
1.111229557e-20
7.693262782e-21
5.31785914e-21
3.670228611e-21
2.529251492e-21
1.740396111e-21
1.195853552e-21
8.205409367e-22
5.62257684e-22
3.847740714e-22
2.629878498e-22
1.795357636e-22
1.224275804e-22
8.339685393e-23
5.675350828e-23
3.858692663e-23
2.621349983e-23
1.779430295e-23
1.207098378e-23
8.183614393e-24
5.545284559e-24
3.755901084e-24
2.543029176e-24
1.721354189e-24
1.164943697e-24
7.882945869e-25
5.333998978e-25
3.609345239e-25
2.442550974e-25
1.653198573e-25
1.119172344e-25
7.578466005e-26
5.133307812e-26
3.478254728e-26
2.357696674e-26
1.59877924e-26
1.084607579e-26
7.361174633e-27
4.998268869e-27
3.395473326e-27
2.307804172e-27
1.569424939e-27
1.067952448e-27
7.272684602e-28
4.957449998e-28
3.383618375e-28
2.313609676e-28
1.58608806e-28
1.09143349e-28
7.551620602e-29
5.266528594e-29
3.714319693e-29
2.661037231e-29
1.947116461e-29
1.463889214e-29
1.137818228e-29
9.170942114e-30
7.690145816e-30
6.70191912e-30
6.040735516e-30
5.606682954e-30
5.318464527e-30
5.132362352e-30
5.014978677e-30
4.94735429e-30
4.899118574e-30
4.871742774e-30
4.858347442e-30
4.852591275e-30
4.851641206e-30
4.853260272e-30
4.855967167e-30
4.858680297e-30
4.861520614e-30
4.864472544e-30
4.867441972e-30
4.869771492e-30
4.871822565e-30
4.873738474e-30
4.874895054e-30
4.875916526e-30
4.876631122e-30
4.877250458e-30
4.877644771e-30
4.877787093e-30
4.877832225e-30
4.877793183e-30
4.877793866e-30
4.87769965e-30
4.877345273e-30
4.877033798e-30
4.87681775e-30
4.876492488e-30
4.876187794e-30
4.875943572e-30
4.87570946e-30
4.875444932e-30
4.875248205e-30
4.874908912e-30
4.874728023e-30
4.874580785e-30
4.874276114e-30
4.874221774e-30
4.874050486e-30
4.873815716e-30
4.873787519e-30
4.873599318e-30
4.873566918e-30
4.873412999e-30
4.873463228e-30
4.873312832e-30
4.873174876e-30
4.873121397e-30
4.873024934e-30
4.872951145e-30
4.873145664e-30
4.872984353e-30
4.872907328e-30
4.87281998e-30
4.872868184e-30
4.872545714e-30
4.872429248e-30
4.872310325e-30
4.872363038e-30
4.872107284e-30
4.872061953e-30
4.872051452e-30
4.871885196e-30
4.871835065e-30
4.871718614e-30
4.871635604e-30
4.871651895e-30
4.87160592e-30
4.871671805e-30
4.871571532e-30
4.871411799e-30
4.871460594e-30
4.871245238e-30
4.871464473e-30
4.871246123e-30
4.87123905e-30
4.871262398e-30
4.871075781e-30
4.871015339e-30
4.871036857e-30
4.871097639e-30
4.870965881e-30
4.870927266e-30
4.870887067e-30
4.870869157e-30
4.870868775e-30
4.870789534e-30
4.870785316e-30
4.870692316e-30
4.8707454e-30
4.870751187e-30
4.870771623e-30
4.870834407e-30
4.870822403e-30
4.870678494e-30
4.870712451e-30
4.870717416e-30
4.870769508e-30
4.87065804e-30
4.870650198e-30
4.870650712e-30
4.870587794e-30
4.870556952e-30
4.870707492e-30
4.870662193e-30
4.870564243e-30
4.870598907e-30
4.870661165e-30
4.870574075e-30
4.870689413e-30
4.87066448e-30
4.870651109e-30
4.870900559e-30
4.870786967e-30
4.870845429e-30
4.87069601e-30
4.870662051e-30
4.870718381e-30
4.870826046e-30
4.870779718e-30
4.870736218e-30
4.870854716e-30
4.870909825e-30
4.8707797e-30
4.87074042e-30
4.870944311e-30
4.870798433e-30
4.87081517e-30
4.870773813e-30
4.870808283e-30
4.870853854e-30
4.870795472e-30
4.870796266e-30
4.870919934e-30
4.870816984e-30
4.870761608e-30
4.870779821e-30
4.870850603e-30
4.870792316e-30
4.87080504e-30
4.870824834e-30
4.870701358e-30
4.870685336e-30
4.870786309e-30
4.870699002e-30
4.870677299e-30
4.870700856e-30
4.870716502e-30
4.870572908e-30
4.870667097e-30
4.870549343e-30
4.870614933e-30
4.870752038e-30
4.870606417e-30
4.870581177e-30
4.870458114e-30
4.870494502e-30
4.870446183e-30
4.870402919e-30
4.870560242e-30
4.87041371e-30
4.870379068e-30
4.87041824e-30
4.870612251e-30
4.870450424e-30
4.870374388e-30
)
;

boundaryField
{
    inlet
    {
        type            fixedValue;
        value           uniform 0;
    }
    outlet
    {
        type            zeroGradient;
    }
    wall
    {
        type            empty;
    }
}


// ************************************************************************* //
