/*--------------------------------*- C++ -*----------------------------------*\
  =========                 |
  \\      /  F ield         | OpenFOAM: The Open Source CFD Toolbox
   \\    /   O peration     | Website:  https://openfoam.org
    \\  /    A nd           | Version:  7
     \\/     M anipulation  |
\*---------------------------------------------------------------------------*/
FoamFile
{
    version     2.0;
    format      ascii;
    class       volScalarField;
    location    "0.000558243009";
    object      C3H5-A;
}
// * * * * * * * * * * * * * * * * * * * * * * * * * * * * * * * * * * * * * //

dimensions      [0 0 0 0 0 0 0];

internalField   nonuniform List<scalar> 
1500
(
2.203651675e-21
8.607173594e-21
1.774320051e-20
2.659901121e-20
3.317630153e-20
3.717561412e-20
3.924428834e-20
4.01765252e-20
4.054873166e-20
4.06821493e-20
4.072556127e-20
4.073850442e-20
4.074206864e-20
4.074298133e-20
4.07431999e-20
4.074324909e-20
4.074325951e-20
4.074326159e-20
4.074326196e-20
4.074326202e-20
4.074326201e-20
4.074326201e-20
4.0743262e-20
4.074326199e-20
4.074326199e-20
4.074326199e-20
4.0743262e-20
4.0743262e-20
4.074326201e-20
4.074326201e-20
4.074326201e-20
4.074326202e-20
4.074326202e-20
4.074326202e-20
4.074326202e-20
4.074326202e-20
4.074326202e-20
4.074326201e-20
4.074326201e-20
4.0743262e-20
4.0743262e-20
4.074326199e-20
4.074326199e-20
4.074326198e-20
4.074326197e-20
4.074326197e-20
4.074326196e-20
4.074326196e-20
4.074326196e-20
4.074326195e-20
4.074326195e-20
4.074326195e-20
4.074326195e-20
4.074326194e-20
4.074326194e-20
4.074326194e-20
4.074326194e-20
4.074326194e-20
4.074326194e-20
4.074326194e-20
4.074326194e-20
4.074326194e-20
4.074326194e-20
4.074326194e-20
4.074326194e-20
4.074326194e-20
4.074326194e-20
4.074326194e-20
4.074326194e-20
4.074326195e-20
4.074326195e-20
4.074326196e-20
4.074326196e-20
4.074326196e-20
4.074326197e-20
4.074326197e-20
4.074326198e-20
4.074326198e-20
4.074326199e-20
4.074326199e-20
4.0743262e-20
4.0743262e-20
4.0743262e-20
4.074326201e-20
4.074326201e-20
4.074326201e-20
4.074326201e-20
4.074326201e-20
4.074326201e-20
4.074326201e-20
4.074326201e-20
4.0743262e-20
4.0743262e-20
4.0743262e-20
4.074326199e-20
4.074326199e-20
4.074326198e-20
4.074326198e-20
4.074326197e-20
4.074326197e-20
4.074326196e-20
4.074326196e-20
4.074326195e-20
4.074326195e-20
4.074326194e-20
4.074326194e-20
4.074326194e-20
4.074326193e-20
4.074326193e-20
4.074326193e-20
4.074326193e-20
4.074326192e-20
4.074326192e-20
4.074326192e-20
4.074326192e-20
4.074326192e-20
4.074326192e-20
4.074326192e-20
4.074326192e-20
4.074326192e-20
4.074326192e-20
4.074326192e-20
4.074326192e-20
4.074326192e-20
4.074326192e-20
4.074326192e-20
4.074326192e-20
4.074326192e-20
4.074326192e-20
4.074326192e-20
4.074326192e-20
4.074326192e-20
4.074326192e-20
4.074326192e-20
4.074326192e-20
4.074326192e-20
4.074326193e-20
4.074326193e-20
4.074326193e-20
4.074326193e-20
4.074326193e-20
4.074326193e-20
4.074326193e-20
4.074326193e-20
4.074326194e-20
4.074326194e-20
4.074326194e-20
4.074326194e-20
4.074326195e-20
4.074326195e-20
4.074326195e-20
4.074326196e-20
4.074326196e-20
4.074326196e-20
4.074326197e-20
4.074326197e-20
4.074326197e-20
4.074326198e-20
4.074326198e-20
4.074326199e-20
4.074326199e-20
4.074326199e-20
4.0743262e-20
4.0743262e-20
4.0743262e-20
4.074326201e-20
4.074326201e-20
4.074326201e-20
4.074326201e-20
4.074326201e-20
4.074326202e-20
4.074326202e-20
4.074326202e-20
4.074326202e-20
4.074326202e-20
4.074326202e-20
4.074326201e-20
4.074326201e-20
4.074326201e-20
4.074326201e-20
4.074326201e-20
4.0743262e-20
4.0743262e-20
4.074326199e-20
4.074326199e-20
4.074326199e-20
4.074326198e-20
4.074326198e-20
4.074326197e-20
4.074326197e-20
4.074326197e-20
4.074326196e-20
4.074326196e-20
4.074326196e-20
4.074326196e-20
4.074326195e-20
4.074326195e-20
4.074326195e-20
4.074326196e-20
4.074326196e-20
4.074326196e-20
4.074326196e-20
4.074326197e-20
4.074326197e-20
4.074326198e-20
4.074326198e-20
4.074326199e-20
4.0743262e-20
4.0743262e-20
4.074326201e-20
4.074326202e-20
4.074326202e-20
4.074326203e-20
4.074326203e-20
4.074326204e-20
4.074326204e-20
4.074326205e-20
4.074326205e-20
4.074326205e-20
4.074326206e-20
4.074326206e-20
4.074326206e-20
4.074326206e-20
4.074326206e-20
4.074326207e-20
4.074326207e-20
4.074326208e-20
4.074326209e-20
4.074326211e-20
4.074326213e-20
4.074326215e-20
4.074326218e-20
4.074326221e-20
4.074326224e-20
4.074326227e-20
4.074326229e-20
4.074326233e-20
4.074326241e-20
4.074326268e-20
4.074326364e-20
4.074326706e-20
4.07432785e-20
4.074331429e-20
4.074341869e-20
4.07437011e-20
4.074440497e-20
4.074600454e-20
4.074925957e-20
4.075497509e-20
4.076282026e-20
4.076552252e-20
4.076632643e-20
4.076716136e-20
4.076802906e-20
4.076893079e-20
4.076986782e-20
4.077084152e-20
4.077185343e-20
4.077290517e-20
4.07739985e-20
4.077513525e-20
4.077631737e-20
4.077754687e-20
4.077882588e-20
4.078015663e-20
4.078154148e-20
4.078298288e-20
4.078448344e-20
4.07860459e-20
4.078767313e-20
4.078936816e-20
4.07911342e-20
4.079297461e-20
4.079489295e-20
4.079689296e-20
4.07989786e-20
4.080115403e-20
4.080342365e-20
4.080579212e-20
4.080826432e-20
4.081084545e-20
4.081354097e-20
4.081635666e-20
4.081929863e-20
4.082237333e-20
4.082558758e-20
4.08289486e-20
4.083246401e-20
4.083614187e-20
4.083999071e-20
4.084401954e-20
4.084823792e-20
4.085265592e-20
4.085728423e-20
4.086213414e-20
4.086721759e-20
4.087254722e-20
4.087813642e-20
4.088399931e-20
4.089015089e-20
4.089660696e-20
4.090338429e-20
4.09105006e-20
4.091797461e-20
4.092582615e-20
4.093407618e-20
4.094274685e-20
4.095186158e-20
4.096144515e-20
4.097152372e-20
4.098212495e-20
4.099327807e-20
4.100501394e-20
4.101736516e-20
4.103036616e-20
4.104405329e-20
4.105846491e-20
4.107364149e-20
4.108962575e-20
4.110646271e-20
4.112419987e-20
4.11428873e-20
4.116257775e-20
4.11833268e-20
4.120519299e-20
4.122823796e-20
4.125252657e-20
4.127812709e-20
4.130511133e-20
4.133355477e-20
4.136353679e-20
4.139514077e-20
4.142845431e-20
4.146356939e-20
4.150058254e-20
4.153959506e-20
4.158071319e-20
4.16240483e-20
4.166971713e-20
4.171784195e-20
4.17685508e-20
4.182197772e-20
4.187826293e-20
4.193755309e-20
4.20000015e-20
4.206576836e-20
4.213502099e-20
4.220793407e-20
4.228468988e-20
4.236547856e-20
4.245049833e-20
4.253995577e-20
4.263406604e-20
4.273305315e-20
4.283715021e-20
4.294659969e-20
4.306165366e-20
4.318257402e-20
4.330963283e-20
4.344311246e-20
4.35833059e-20
4.373051699e-20
4.388506068e-20
4.40472632e-20
4.421746238e-20
4.439600782e-20
4.458326114e-20
4.477959616e-20
4.498539915e-20
4.520106899e-20
4.54270174e-20
4.566366907e-20
4.59114619e-20
4.617084707e-20
4.644228926e-20
4.672626676e-20
4.702327158e-20
4.733380956e-20
4.765840048e-20
4.799757811e-20
4.835189029e-20
4.872189894e-20
4.910818014e-20
4.951132406e-20
4.993193502e-20
5.037063138e-20
5.082804556e-20
5.13048239e-20
5.180162661e-20
5.231912759e-20
5.285801436e-20
5.341898781e-20
5.400276209e-20
5.461006433e-20
5.524163443e-20
5.589822478e-20
5.658059999e-20
5.728953656e-20
5.802582252e-20
5.879025714e-20
5.958365044e-20
6.040682285e-20
6.126060475e-20
6.214583599e-20
6.306336543e-20
6.401405042e-20
6.499875629e-20
6.601835575e-20
6.707372837e-20
6.816575997e-20
6.9295342e-20
7.046337092e-20
7.167074755e-20
7.291837644e-20
7.420716516e-20
7.553802364e-20
7.691186347e-20
7.832959719e-20
7.979213763e-20
8.130039711e-20
8.285528682e-20
8.445771604e-20
8.610859149e-20
8.780881654e-20
8.955929059e-20
9.136090837e-20
9.321455921e-20
9.512112645e-20
9.708148677e-20
9.909650955e-20
1.011670563e-19
1.032939802e-19
1.054781252e-19
1.077203262e-19
1.100214077e-19
1.123821841e-19
1.148034592e-19
1.172860256e-19
1.198306646e-19
1.22438146e-19
1.251092279e-19
1.278446566e-19
1.306451668e-19
1.335114813e-19
1.364443114e-19
1.394443568e-19
1.425123065e-19
1.456488384e-19
1.488546203e-19
1.521303104e-19
1.554765578e-19
1.588940035e-19
1.623832812e-19
1.65945018e-19
1.695798362e-19
1.732883538e-19
1.770711864e-19
1.809289484e-19
1.848622548e-19
1.888717228e-19
1.929579739e-19
1.971216358e-19
2.013633446e-19
2.056837475e-19
2.100835046e-19
2.145632924e-19
2.191238059e-19
2.237657623e-19
2.284899036e-19
2.332970002e-19
2.381878546e-19
2.431633047e-19
2.482242281e-19
2.53371546e-19
2.586062275e-19
2.639292942e-19
2.693418246e-19
2.748449592e-19
2.804399058e-19
2.861279442e-19
2.919104323e-19
2.977888115e-19
3.037646126e-19
3.098394624e-19
3.160150894e-19
3.222933311e-19
3.286761403e-19
3.351655926e-19
3.417638934e-19
3.484733856e-19
3.552965576e-19
3.622360508e-19
3.692946685e-19
3.76475384e-19
3.837813499e-19
3.912159066e-19
3.98782592e-19
4.064851512e-19
4.143275459e-19
4.223139652e-19
4.304488357e-19
4.387368323e-19
4.471828892e-19
4.557922114e-19
4.645702863e-19
4.735228958e-19
4.826561282e-19
4.919763914e-19
5.014904259e-19
5.112053175e-19
5.211285121e-19
5.312678297e-19
5.416314791e-19
5.522280714e-19
5.630666397e-19
5.741566521e-19
5.855080254e-19
5.971311449e-19
6.09036881e-19
6.212366073e-19
6.337422198e-19
6.465661549e-19
6.597214091e-19
6.732215582e-19
6.870807773e-19
7.013138617e-19
7.159362476e-19
7.309640344e-19
7.464140048e-19
7.623036524e-19
7.786512047e-19
7.95475649e-19
8.127967579e-19
8.306351191e-19
8.490121642e-19
8.679501941e-19
8.874724082e-19
9.076029376e-19
9.28366878e-19
9.497903242e-19
9.719004051e-19
9.947253212e-19
1.018294383e-18
1.042638054e-18
1.067787987e-18
1.093777079e-18
1.12063951e-18
1.148410799e-18
1.177127854e-18
1.206829033e-18
1.2375542e-18
1.269344797e-18
1.30224391e-18
1.336296348e-18
1.371548726e-18
1.408049558e-18
1.445849358e-18
1.48500075e-18
1.525558592e-18
1.567580119e-18
1.611125096e-18
1.656255993e-18
1.703038189e-18
1.7515402e-18
1.801833939e-18
1.853995019e-18
1.908103103e-18
1.964242307e-18
2.02250167e-18
2.082975705e-18
2.145765043e-18
2.210977185e-18
2.278727391e-18
2.349139728e-18
2.4223483e-18
2.498498712e-18
2.577749796e-18
2.660275656e-18
2.746268101e-18
2.835939526e-18
2.929526338e-18
3.027293031e-18
3.12953703e-18
3.236594459e-18
3.34884701e-18
3.466730113e-18
3.590742686e-18
3.721458739e-18
3.859541209e-18
4.005758452e-18
4.161003902e-18
4.326319515e-18
4.502923714e-18
4.692244727e-18
4.89596033e-18
5.116045257e-18
5.354827742e-18
5.615056955e-18
5.89998345e-18
6.213455117e-18
6.560031654e-18
6.945121122e-18
7.375142871e-18
7.857721931e-18
8.401920969e-18
9.0185171e-18
9.720332267e-18
1.05226276e-17
1.144357425e-17
1.250481556e-17
1.373213854e-17
1.515627604e-17
1.68138653e-17
1.874859378e-17
2.101256944e-17
2.366795996e-17
2.67889548e-17
3.04641149e-17
3.479918836e-17
3.992048681e-17
4.597893748e-17
5.315495028e-17
6.166426979e-17
7.17650192e-17
8.376618941e-17
9.803788411e-17
1.150237028e-16
1.352557331e-16
1.593727375e-16
1.881422583e-16
2.224875496e-16
2.635204687e-16
3.125817588e-16
3.712905275e-16
4.416052196e-16
5.258990158e-16
6.270534222e-16
7.485749102e-16
8.947409113e-16
1.070783396e-15
1.283120835e-15
1.539652781e-15
1.850136e-15
2.226667366e-15
2.684307409e-15
3.241890252e-15
3.923082036e-15
4.757772688e-15
5.783917649e-15
7.049990886e-15
8.618273819e-15
1.056929508e-14
1.300786586e-14
1.607134332e-14
1.994102899e-14
2.485801155e-14
3.114536068e-14
3.923946862e-14
4.973467435e-14
6.344733029e-14
8.150855754e-14
1.054996714e-13
1.376515731e-13
1.811407767e-13
2.405325277e-13
3.22449472e-13
4.36588657e-13
5.972802299e-13
8.258942299e-13
1.154583877e-12
1.632148347e-12
2.333276893e-12
3.373217332e-12
4.931188624e-12
7.287945506e-12
1.088631579e-11
1.642909679e-11
2.503774681e-11
3.850996168e-11
5.973784263e-11
9.338621035e-11
1.469908956e-10
2.327321503e-10
3.702878503e-10
5.914036935e-10
9.471757367e-10
1.519586456e-09
2.43965797e-09
3.915809974e-09
6.277807409e-09
1.004428199e-08
1.602551733e-08
2.547837703e-08
4.033742122e-08
6.355601137e-08
9.960434405e-08
1.551888075e-07
2.402565331e-07
3.695515251e-07
5.642047443e-07
8.558639101e-07
1.288550882e-06
1.9244112e-06
2.833666718e-06
4.131587265e-06
5.956796336e-06
8.480800257e-06
1.19081725e-05
1.647782102e-05
2.246704159e-05
3.019706494e-05
4.002011177e-05
5.231659078e-05
6.749664074e-05
8.631325686e-05
0.0001085880882
0.0001350000727
0.0001657369832
0.0002010892386
0.0002394192658
0.0002795208525
0.0003187079912
0.0003536312481
0.0003792416906
0.000391416726
0.0003871698913
0.0003661024584
0.000330903875
0.0002865599118
0.0002385448047
0.0001924255822
0.0001509373929
0.0001160819131
8.789805603e-05
6.580562257e-05
4.88790158e-05
3.612445692e-05
2.652169937e-05
1.936952182e-05
1.411679871e-05
1.0273868e-05
7.471481569e-06
5.431258443e-06
3.946236645e-06
2.865324642e-06
2.07829301e-06
1.506896726e-06
1.099832097e-06
8.037113328e-07
5.854731099e-07
4.270658759e-07
3.119514508e-07
2.281716969e-07
1.671029785e-07
1.225235924e-07
8.99751746e-08
6.613046134e-08
4.866208852e-08
3.585116035e-08
2.644588431e-08
1.953348348e-08
1.444764593e-08
1.070148335e-08
7.93887474e-09
5.899101095e-09
4.391109656e-09
3.274766512e-09
2.447187123e-09
1.832760734e-09
1.375864262e-09
1.035536086e-09
7.815790868e-10
5.917071823e-10
4.494538971e-10
3.426381689e-10
2.622378904e-10
2.015620385e-10
1.556416626e-10
1.207814311e-10
9.422907308e-11
7.393147002e-11
5.835448989e-11
4.634976065e-11
3.705604183e-11
2.9826124e-11
2.417258339e-11
1.972747777e-11
1.621236157e-11
1.341594793e-11
1.117744378e-11
9.374098813e-12
7.911888075e-12
6.718528182e-12
5.738233372e-12
4.927770715e-12
4.253486727e-12
3.689061452e-12
3.213808204e-12
2.811383276e-12
2.468804235e-12
2.175700917e-12
1.923742259e-12
1.706196292e-12
1.517591189e-12
1.353453221e-12
1.210103368e-12
1.084498805e-12
9.741088364e-13
8.768173266e-13
7.908456178e-13
7.146913188e-13
6.47079453e-13
5.869232619e-13
5.332925891e-13
4.853882399e-13
4.425210757e-13
4.040948761e-13
3.69592217e-13
3.385627719e-13
3.106135732e-13
2.854008659e-13
2.62623261e-13
2.420159561e-13
2.233458373e-13
2.064073105e-13
1.910187414e-13
1.770194038e-13
1.642668568e-13
1.526346819e-13
1.420105269e-13
1.3229441e-13
1.233972457e-13
1.152395611e-13
1.077503758e-13
1.008662221e-13
9.453028693e-14
8.869165919e-14
8.330466808e-14
7.832830098e-14
7.372569036e-14
6.946366121e-14
6.551233106e-14
6.184475632e-14
5.843661921e-14
5.526595006e-14
5.231288114e-14
4.955942785e-14
4.69892943e-14
4.458770031e-14
4.23412273e-14
4.023768092e-14
3.826596858e-14
3.641598997e-14
3.467853931e-14
3.304521792e-14
3.150835596e-14
3.006094227e-14
2.869656156e-14
2.7409338e-14
2.619388459e-14
2.504525764e-14
2.395891588e-14
2.29306836e-14
2.195671751e-14
2.103347683e-14
2.015769631e-14
1.93263619e-14
1.853668876e-14
1.778610134e-14
1.707221542e-14
1.639282179e-14
1.574587151e-14
1.512946248e-14
1.454182731e-14
1.398132228e-14
1.344641729e-14
1.293568673e-14
1.244780119e-14
1.198151982e-14
1.153568352e-14
1.110920854e-14
1.07010808e-14
1.031035055e-14
9.93612764e-15
9.577577046e-15
9.233914865e-15
8.904404605e-15
8.588353789e-15
8.285110834e-15
7.994062182e-15
7.714629668e-15
7.446268089e-15
7.188462965e-15
6.940728483e-15
6.702605591e-15
6.473660241e-15
6.253481769e-15
6.041681388e-15
5.837890806e-15
5.641760932e-15
5.452960687e-15
5.271175897e-15
5.096108265e-15
4.927474417e-15
4.765005013e-15
4.608443924e-15
4.457547462e-15
4.312083662e-15
4.171831616e-15
4.03658085e-15
3.90613074e-15
3.780289969e-15
3.65887602e-15
3.541714695e-15
3.428639675e-15
3.319492099e-15
3.214120174e-15
3.112378805e-15
3.014129251e-15
2.919238803e-15
2.827580477e-15
2.739032726e-15
2.653479172e-15
2.570808353e-15
2.490913479e-15
2.413692212e-15
2.339046446e-15
2.266882111e-15
2.197108981e-15
2.129640494e-15
2.064393583e-15
2.001288512e-15
1.940248729e-15
1.881200718e-15
1.824073863e-15
1.76880032e-15
1.715314892e-15
1.663554913e-15
1.61346014e-15
1.564972644e-15
1.51803671e-15
1.472598746e-15
1.428607191e-15
1.386012426e-15
1.344766695e-15
1.304824029e-15
1.266140167e-15
1.228672488e-15
1.192379946e-15
1.157223e-15
1.123163557e-15
1.090164913e-15
1.058191696e-15
1.027209813e-15
9.971863991e-16
9.680897702e-16
9.398893741e-16
9.125557476e-16
8.860604738e-16
8.603761412e-16
8.354763049e-16
8.113354492e-16
7.879289523e-16
7.652330519e-16
7.432248126e-16
7.218820945e-16
7.011835234e-16
6.811084618e-16
6.616369813e-16
6.427498366e-16
6.244284396e-16
6.066548354e-16
5.894116788e-16
5.726822122e-16
5.564502437e-16
5.407001267e-16
5.254167401e-16
5.105854692e-16
4.961921874e-16
4.822232388e-16
4.686654212e-16
4.555059697e-16
4.427325415e-16
4.303332008e-16
4.182964043e-16
4.066109871e-16
3.9526615e-16
3.842514463e-16
3.735567693e-16
3.631723409e-16
3.530886997e-16
3.432966904e-16
3.33787453e-16
3.245524127e-16
3.155832702e-16
3.068719919e-16
2.984108011e-16
2.901921693e-16
2.822088076e-16
2.744536586e-16
2.669198886e-16
2.596008798e-16
2.524902237e-16
2.455817133e-16
2.388693368e-16
2.323472708e-16
2.260098745e-16
2.198516831e-16
2.138674021e-16
2.080519019e-16
2.024002121e-16
1.969075163e-16
1.915691473e-16
1.863805817e-16
1.813374358e-16
1.764354603e-16
1.716705369e-16
1.670386731e-16
1.625359985e-16
1.581587612e-16
1.539033233e-16
1.497661578e-16
1.457438446e-16
1.418330675e-16
1.380306104e-16
1.343333546e-16
1.307382753e-16
1.272424388e-16
1.238429995e-16
1.205371973e-16
1.173223546e-16
1.141958741e-16
1.111552359e-16
1.081979952e-16
1.053217798e-16
1.025242884e-16
9.980328761e-17
9.715661023e-17
9.458215323e-17
9.207787561e-17
8.964179656e-17
8.727199356e-17
8.496660057e-17
8.272380633e-17
8.054185263e-17
7.841903271e-17
7.635368967e-17
7.434421491e-17
7.238904673e-17
7.048666881e-17
6.863560891e-17
6.683443745e-17
6.508176628e-17
6.337624738e-17
6.171657167e-17
6.010146782e-17
5.852970112e-17
5.700007238e-17
5.551141685e-17
5.406260318e-17
5.265253244e-17
5.128013717e-17
4.994438039e-17
4.864425468e-17
4.737878138e-17
4.614700963e-17
4.494801565e-17
4.378090185e-17
4.264479611e-17
4.153885102e-17
4.046224311e-17
3.94141722e-17
3.839386068e-17
3.740055285e-17
3.643351429e-17
3.549203122e-17
3.457540993e-17
3.368297614e-17
3.281407447e-17
3.196806789e-17
3.114433717e-17
3.034228038e-17
2.956131237e-17
2.880086429e-17
2.806038313e-17
2.733933125e-17
2.663718594e-17
2.595343898e-17
2.528759625e-17
2.46391773e-17
2.400771496e-17
2.339275495e-17
2.279385557e-17
2.221058725e-17
2.164253228e-17
2.108928441e-17
2.055044858e-17
2.002564057e-17
1.951448669e-17
1.901662349e-17
1.853169748e-17
1.805936483e-17
1.759929109e-17
1.715115096e-17
1.6714628e-17
1.628941439e-17
1.587521069e-17
1.54717256e-17
1.507867574e-17
1.469578541e-17
1.432278639e-17
1.395941773e-17
1.360542555e-17
1.326056283e-17
1.292458922e-17
1.259727087e-17
1.227838022e-17
1.196769586e-17
1.166500233e-17
1.137008999e-17
1.10827548e-17
1.080279823e-17
1.053002707e-17
1.026425329e-17
1.000529389e-17
9.752970784e-18
9.507110641e-18
9.267544768e-18
9.034108974e-18
8.806643452e-18
8.584992657e-18
8.369005188e-18
8.158533676e-18
7.953434672e-18
7.753568543e-18
7.558799363e-18
7.368994817e-18
7.184026099e-18
7.003767818e-18
6.828097902e-18
6.656897514e-18
6.490050957e-18
6.327445596e-18
6.168971768e-18
6.014522706e-18
5.863994459e-18
5.717285815e-18
5.574298231e-18
5.434935754e-18
5.299104958e-18
5.166714873e-18
5.037676916e-18
4.911904833e-18
4.789314632e-18
4.669824521e-18
4.553354854e-18
4.439828069e-18
4.329168634e-18
4.221302992e-18
4.116159509e-18
4.013668421e-18
3.913761786e-18
3.816373434e-18
3.721438921e-18
3.628895479e-18
3.538681977e-18
3.450738874e-18
3.365008178e-18
3.281433402e-18
3.199959529e-18
3.120532968e-18
3.043101519e-18
2.967614335e-18
2.894021887e-18
2.822275929e-18
2.75232946e-18
2.684136699e-18
2.617653046e-18
2.552835052e-18
2.48964039e-18
2.428027826e-18
2.367957188e-18
2.309389338e-18
2.252286146e-18
2.196610462e-18
2.142326091e-18
2.089397769e-18
2.037791134e-18
1.987472707e-18
1.938409865e-18
1.890570821e-18
1.8439246e-18
1.798441018e-18
1.754090659e-18
1.71084486e-18
1.668675684e-18
1.627555905e-18
1.587458988e-18
1.548359069e-18
1.510230937e-18
1.47305002e-18
1.436792361e-18
1.401434607e-18
1.366953988e-18
1.333328304e-18
1.300535908e-18
1.268555688e-18
1.237367054e-18
1.206949924e-18
1.177284706e-18
1.148352285e-18
1.120134008e-18
1.092611671e-18
1.065767503e-18
1.039584152e-18
1.014044674e-18
9.891325154e-19
9.648315008e-19
9.411258195e-19
9.180000111e-19
8.954389516e-19
8.734278396e-19
8.519521822e-19
8.309977797e-19
8.105507126e-19
7.905973264e-19
7.711242161e-19
7.521182117e-19
7.33566362e-19
7.154559192e-19
6.977743229e-19
6.805091834e-19
6.63648266e-19
6.471794739e-19
6.310908328e-19
6.153704744e-19
6.00006622e-19
5.849875763e-19
5.703017034e-19
5.559374246e-19
5.418832094e-19
5.281275718e-19
5.146590709e-19
5.014663186e-19
4.885379907e-19
4.758628572e-19
4.634298237e-19
4.512280112e-19
4.392469009e-19
4.274766161e-19
3.333294413e-19
2.368118144e-19
1.682760175e-19
1.194531117e-19
8.468818262e-20
5.99605095e-20
4.239393186e-20
2.99309182e-20
2.11007865e-20
1.485338984e-20
1.043971321e-20
7.32616752e-21
5.133117093e-21
3.590821952e-21
2.507892637e-21
1.748727158e-21
1.217392607e-21
8.461240655e-22
5.871288519e-22
4.067540608e-22
2.813420339e-22
1.942892318e-22
1.339625513e-22
9.22252663e-23
6.339595505e-23
4.351446916e-23
2.982522622e-23
2.041414473e-23
1.395395856e-23
9.525896864e-24
6.495038977e-24
4.423358781e-24
3.009163875e-24
2.04499923e-24
1.388436128e-24
9.418402592e-25
6.383831676e-25
4.323880115e-25
2.926778434e-25
1.980005876e-25
1.338875656e-25
9.049984843e-26
6.115412273e-26
4.13151933e-26
2.790840576e-26
1.885104133e-26
1.273336456e-26
8.601798877e-27
5.811686468e-27
3.927429056e-27
2.654798067e-27
1.795115508e-27
1.214251071e-27
8.216650135e-28
5.562398099e-28
3.767195273e-28
2.55249262e-28
1.730219427e-28
1.173343236e-28
7.960191249e-29
5.402480695e-29
3.66782172e-29
2.490896605e-29
1.692046616e-29
1.149616445e-29
7.811846485e-30
5.308802225e-30
3.607909866e-30
2.451959914e-30
1.666438313e-30
1.132559941e-30
7.699171209e-31
5.237043649e-31
3.565695086e-31
2.434117982e-31
1.66245438e-31
1.141338772e-31
7.897218715e-32
5.501700557e-32
3.898842278e-32
2.811602297e-32
2.079834032e-32
1.594854895e-32
1.296506195e-32
1.059861693e-32
9.059297208e-33
8.124196932e-33
7.498261094e-33
7.093689632e-33
6.845186821e-33
6.682369437e-33
6.545829653e-33
6.460519968e-33
6.402115111e-33
6.392323449e-33
6.373917267e-33
6.362633023e-33
6.366306155e-33
6.358635637e-33
6.356784466e-33
6.35204013e-33
6.358120683e-33
6.358025038e-33
6.356251023e-33
6.35432785e-33
6.352124093e-33
6.355567042e-33
6.358279116e-33
6.353787606e-33
6.348959406e-33
6.352880168e-33
6.350408002e-33
6.349630516e-33
6.350537883e-33
6.35227236e-33
6.352321e-33
6.354809091e-33
6.35029945e-33
6.352409813e-33
6.353566306e-33
6.348589266e-33
6.351672511e-33
6.352178827e-33
6.346889469e-33
6.350219709e-33
6.346455293e-33
6.349359893e-33
6.345967945e-33
6.351910217e-33
6.348599709e-33
6.345837277e-33
6.346954692e-33
6.345529496e-33
6.345180436e-33
6.357416966e-33
6.353860557e-33
6.352540819e-33
6.35352425e-33
6.359210822e-33
6.347676198e-33
6.346239846e-33
6.344082678e-33
6.353417563e-33
6.346005113e-33
6.347255874e-33
6.34990187e-33
6.345557654e-33
6.347828899e-33
6.346741161e-33
6.34528821e-33
6.349515668e-33
6.348351586e-33
6.353947257e-33
6.350875911e-33
6.348081044e-33
6.352174399e-33
6.343050106e-33
6.357519622e-33
6.348690579e-33
6.351614987e-33
6.355344956e-33
6.346655255e-33
6.344778876e-33
6.346466556e-33
6.353219218e-33
6.34496646e-33
6.344176489e-33
6.343017284e-33
6.344971361e-33
6.345239121e-33
6.343071894e-33
6.343392994e-33
6.341246361e-33
6.343845474e-33
6.345834617e-33
6.347198629e-33
6.352201586e-33
6.350446544e-33
6.34517271e-33
6.348641787e-33
6.350696299e-33
6.352969926e-33
6.347333949e-33
6.348538224e-33
6.348433014e-33
6.343819205e-33
6.342654805e-33
6.349361399e-33
6.34823789e-33
6.343198314e-33
6.344993674e-33
6.347776613e-33
6.342314377e-33
6.348827824e-33
6.348315128e-33
6.343678803e-33
6.355887014e-33
6.348326164e-33
6.351266338e-33
6.342033817e-33
6.34019695e-33
6.340878819e-33
6.34805e-33
6.344470566e-33
6.342080212e-33
6.346043384e-33
6.349173365e-33
6.342711773e-33
6.338687849e-33
6.34923237e-33
6.342172597e-33
6.343626497e-33
6.342032356e-33
6.342499515e-33
6.345582072e-33
6.343509044e-33
6.342849932e-33
6.348757574e-33
6.343783061e-33
6.34241505e-33
6.343070548e-33
6.347236491e-33
6.343859012e-33
6.345591949e-33
6.346693153e-33
6.342521132e-33
6.342128956e-33
6.346692838e-33
6.343722072e-33
6.343290925e-33
6.345474423e-33
6.34698335e-33
6.341879215e-33
6.343784097e-33
6.34128805e-33
6.345146945e-33
6.350461996e-33
6.344849939e-33
6.344467915e-33
6.339837703e-33
6.341556679e-33
6.340354844e-33
6.338335867e-33
6.343830099e-33
6.3399379e-33
6.338832363e-33
6.339623431e-33
6.349272083e-33
6.343964916e-33
6.340733713e-33
)
;

boundaryField
{
    inlet
    {
        type            fixedValue;
        value           uniform 0;
    }
    outlet
    {
        type            zeroGradient;
    }
    wall
    {
        type            empty;
    }
}


// ************************************************************************* //
