/*--------------------------------*- C++ -*----------------------------------*\
  =========                 |
  \\      /  F ield         | OpenFOAM: The Open Source CFD Toolbox
   \\    /   O peration     | Website:  https://openfoam.org
    \\  /    A nd           | Version:  7
     \\/     M anipulation  |
\*---------------------------------------------------------------------------*/
FoamFile
{
    version     2.0;
    format      ascii;
    class       volScalarField;
    location    "0.000558243009";
    object      C3H5-A_0;
}
// * * * * * * * * * * * * * * * * * * * * * * * * * * * * * * * * * * * * * //

dimensions      [0 0 0 0 0 0 0];

internalField   nonuniform List<scalar> 
1500
(
2.205186462e-21
8.61175136e-21
1.774991337e-20
2.660565023e-20
3.318132837e-20
3.71787248e-20
3.924592155e-20
4.017727071e-20
4.054903308e-20
4.068225913e-20
4.072559814e-20
4.073851637e-20
4.074207284e-20
4.074298332e-20
4.074320132e-20
4.074325036e-20
4.074326075e-20
4.074326282e-20
4.074326319e-20
4.074326325e-20
4.074326324e-20
4.074326323e-20
4.074326323e-20
4.074326322e-20
4.074326322e-20
4.074326322e-20
4.074326322e-20
4.074326323e-20
4.074326323e-20
4.074326324e-20
4.074326324e-20
4.074326325e-20
4.074326325e-20
4.074326325e-20
4.074326325e-20
4.074326325e-20
4.074326325e-20
4.074326324e-20
4.074326324e-20
4.074326323e-20
4.074326323e-20
4.074326322e-20
4.074326321e-20
4.074326321e-20
4.07432632e-20
4.07432632e-20
4.074326319e-20
4.074326319e-20
4.074326319e-20
4.074326318e-20
4.074326318e-20
4.074326318e-20
4.074326318e-20
4.074326317e-20
4.074326317e-20
4.074326317e-20
4.074326317e-20
4.074326317e-20
4.074326317e-20
4.074326317e-20
4.074326317e-20
4.074326316e-20
4.074326316e-20
4.074326317e-20
4.074326317e-20
4.074326317e-20
4.074326317e-20
4.074326317e-20
4.074326317e-20
4.074326318e-20
4.074326318e-20
4.074326318e-20
4.074326319e-20
4.074326319e-20
4.07432632e-20
4.07432632e-20
4.074326321e-20
4.074326321e-20
4.074326322e-20
4.074326322e-20
4.074326323e-20
4.074326323e-20
4.074326323e-20
4.074326324e-20
4.074326324e-20
4.074326324e-20
4.074326324e-20
4.074326324e-20
4.074326324e-20
4.074326324e-20
4.074326323e-20
4.074326323e-20
4.074326323e-20
4.074326322e-20
4.074326322e-20
4.074326322e-20
4.074326321e-20
4.074326321e-20
4.07432632e-20
4.07432632e-20
4.074326319e-20
4.074326318e-20
4.074326318e-20
4.074326318e-20
4.074326317e-20
4.074326317e-20
4.074326316e-20
4.074326316e-20
4.074326316e-20
4.074326316e-20
4.074326316e-20
4.074326315e-20
4.074326315e-20
4.074326315e-20
4.074326315e-20
4.074326315e-20
4.074326315e-20
4.074326315e-20
4.074326315e-20
4.074326315e-20
4.074326315e-20
4.074326315e-20
4.074326315e-20
4.074326315e-20
4.074326315e-20
4.074326315e-20
4.074326315e-20
4.074326315e-20
4.074326315e-20
4.074326315e-20
4.074326315e-20
4.074326315e-20
4.074326315e-20
4.074326315e-20
4.074326315e-20
4.074326315e-20
4.074326315e-20
4.074326316e-20
4.074326316e-20
4.074326316e-20
4.074326316e-20
4.074326316e-20
4.074326316e-20
4.074326316e-20
4.074326317e-20
4.074326317e-20
4.074326317e-20
4.074326317e-20
4.074326318e-20
4.074326318e-20
4.074326318e-20
4.074326318e-20
4.074326319e-20
4.074326319e-20
4.07432632e-20
4.07432632e-20
4.07432632e-20
4.074326321e-20
4.074326321e-20
4.074326321e-20
4.074326322e-20
4.074326322e-20
4.074326323e-20
4.074326323e-20
4.074326323e-20
4.074326324e-20
4.074326324e-20
4.074326324e-20
4.074326324e-20
4.074326324e-20
4.074326324e-20
4.074326325e-20
4.074326325e-20
4.074326325e-20
4.074326325e-20
4.074326325e-20
4.074326324e-20
4.074326324e-20
4.074326324e-20
4.074326324e-20
4.074326323e-20
4.074326323e-20
4.074326323e-20
4.074326322e-20
4.074326322e-20
4.074326321e-20
4.074326321e-20
4.074326321e-20
4.07432632e-20
4.07432632e-20
4.074326319e-20
4.074326319e-20
4.074326319e-20
4.074326319e-20
4.074326318e-20
4.074326318e-20
4.074326318e-20
4.074326318e-20
4.074326319e-20
4.074326319e-20
4.074326319e-20
4.074326319e-20
4.07432632e-20
4.07432632e-20
4.074326321e-20
4.074326321e-20
4.074326322e-20
4.074326322e-20
4.074326323e-20
4.074326324e-20
4.074326324e-20
4.074326325e-20
4.074326326e-20
4.074326326e-20
4.074326327e-20
4.074326327e-20
4.074326328e-20
4.074326328e-20
4.074326328e-20
4.074326328e-20
4.074326329e-20
4.074326329e-20
4.074326329e-20
4.074326329e-20
4.07432633e-20
4.07432633e-20
4.074326331e-20
4.074326332e-20
4.074326334e-20
4.074326336e-20
4.074326338e-20
4.074326341e-20
4.074326344e-20
4.074326347e-20
4.074326349e-20
4.074326352e-20
4.074326356e-20
4.074326364e-20
4.07432639e-20
4.074326487e-20
4.074326829e-20
4.074327974e-20
4.074331558e-20
4.074342012e-20
4.074370292e-20
4.074440783e-20
4.074600988e-20
4.074927015e-20
4.075499512e-20
4.07628535e-20
4.076556074e-20
4.076636556e-20
4.076720184e-20
4.076807108e-20
4.076897443e-20
4.076991312e-20
4.077088853e-20
4.077190219e-20
4.077295576e-20
4.077405099e-20
4.077518972e-20
4.077637391e-20
4.077760557e-20
4.077888683e-20
4.078021993e-20
4.078160723e-20
4.07830512e-20
4.078455443e-20
4.078611968e-20
4.078774982e-20
4.07894479e-20
4.079121712e-20
4.079306086e-20
4.079498269e-20
4.079698634e-20
4.079907579e-20
4.080125521e-20
4.080352901e-20
4.080590185e-20
4.080837864e-20
4.081096458e-20
4.081366513e-20
4.081648611e-20
4.081943361e-20
4.082251413e-20
4.082573448e-20
4.08291019e-20
4.083262403e-20
4.083630896e-20
4.084016522e-20
4.084420186e-20
4.084842844e-20
4.085285507e-20
4.085749246e-20
4.086235191e-20
4.086744541e-20
4.087278562e-20
4.087838596e-20
4.088426059e-20
4.089042452e-20
4.089689362e-20
4.090368468e-20
4.091081545e-20
4.091830472e-20
4.092617235e-20
4.093443934e-20
4.09431279e-20
4.095226152e-20
4.096186501e-20
4.09719646e-20
4.098258802e-20
4.099376456e-20
4.100552515e-20
4.101790248e-20
4.103093104e-20
4.104464726e-20
4.10590896e-20
4.107429862e-20
4.109031713e-20
4.110719027e-20
4.112496563e-20
4.114369339e-20
4.116342642e-20
4.118422044e-20
4.12061341e-20
4.122922919e-20
4.125357072e-20
4.127922709e-20
4.130627028e-20
4.133477595e-20
4.136482362e-20
4.139649688e-20
4.142988352e-20
4.146507569e-20
4.150217016e-20
4.154126843e-20
4.158247696e-20
4.162590737e-20
4.167167664e-20
4.17199073e-20
4.177072765e-20
4.182427202e-20
4.18806809e-20
4.194010127e-20
4.200268673e-20
4.20685978e-20
4.213800215e-20
4.221107481e-20
4.228799841e-20
4.236896346e-20
4.245416859e-20
4.254382076e-20
4.263813556e-20
4.273733742e-20
4.284165991e-20
4.295134592e-20
4.306664802e-20
4.31878286e-20
4.331516019e-20
4.34489257e-20
4.358941864e-20
4.37369434e-20
4.389181547e-20
4.405436168e-20
4.422492042e-20
4.440384191e-20
4.459148836e-20
4.478823425e-20
4.499446647e-20
4.521058457e-20
4.543700093e-20
4.567414094e-20
4.592244317e-20
4.618235953e-20
4.645435541e-20
4.673890982e-20
4.703651553e-20
4.734767913e-20
4.767292115e-20
4.801277615e-20
4.836779273e-20
4.873853361e-20
4.912557565e-20
4.952950984e-20
4.995094129e-20
5.039048918e-20
5.084878674e-20
5.132648112e-20
5.182423336e-20
5.234271817e-20
5.288262389e-20
5.344465223e-20
5.402951814e-20
5.463794958e-20
5.527068723e-20
5.592848429e-20
5.661210616e-20
5.732233011e-20
5.805994496e-20
5.882575072e-20
5.962055817e-20
6.044518846e-20
6.130047267e-20
6.218725138e-20
6.310637411e-20
6.405869888e-20
6.504509164e-20
6.606642574e-20
6.712358133e-20
6.821744479e-20
6.934890811e-20
7.051886827e-20
7.172822658e-20
7.297788803e-20
7.426876062e-20
7.560175467e-20
7.697778211e-20
7.839775584e-20
7.986258894e-20
8.137319401e-20
8.293048244e-20
8.453536371e-20
8.618874464e-20
8.789152875e-20
8.964461549e-20
9.14488996e-20
9.330527043e-20
9.521461125e-20
9.717779865e-20
9.91957019e-20
1.012691824e-19
1.033990929e-19
1.055862775e-19
1.078315705e-19
1.101357962e-19
1.124997688e-19
1.149242916e-19
1.174101568e-19
1.199581453e-19
1.225690264e-19
1.252435578e-19
1.279824855e-19
1.307865433e-19
1.336564538e-19
1.365929276e-19
1.39596664e-19
1.426683513e-19
1.458086669e-19
1.490182782e-19
1.522978427e-19
1.556480091e-19
1.590694179e-19
1.625627022e-19
1.661284888e-19
1.697673994e-19
1.734800518e-19
1.772670613e-19
1.811290419e-19
1.850666083e-19
1.890803778e-19
1.931709717e-19
1.973390178e-19
2.015851522e-19
2.059100221e-19
2.103142883e-19
2.147986274e-19
2.193637351e-19
2.240103292e-19
2.287391525e-19
2.335509765e-19
2.384466045e-19
2.43426876e-19
2.4849267e-19
2.536449094e-19
2.58884565e-19
2.642126606e-19
2.69630277e-19
2.751385574e-19
2.807387122e-19
2.864320244e-19
2.922198552e-19
2.981036495e-19
3.040849424e-19
3.101653645e-19
3.163466493e-19
3.226306389e-19
3.290192916e-19
3.355146886e-19
3.421190414e-19
3.488346993e-19
3.556641575e-19
3.626100648e-19
3.696752323e-19
3.768626415e-19
3.841754535e-19
3.916170182e-19
3.99190883e-19
4.069008033e-19
4.147507517e-19
4.227449286e-19
4.308877725e-19
4.391839709e-19
4.476384712e-19
4.562564922e-19
4.650435358e-19
4.740053989e-19
4.831481859e-19
4.924783212e-19
5.020025625e-19
5.117280138e-19
5.216621397e-19
5.318127798e-19
5.42188164e-19
5.527969234e-19
5.636481144e-19
5.747512289e-19
5.861162068e-19
5.977534585e-19
6.096738802e-19
6.218888725e-19
6.344103594e-19
6.472508065e-19
6.604232406e-19
6.739412688e-19
6.87819099e-19
7.020715599e-19
7.167141226e-19
7.317629234e-19
7.472347809e-19
7.631472275e-19
7.795185304e-19
7.963677186e-19
8.137146063e-19
8.315798255e-19
8.499848547e-19
8.689520419e-19
8.885046351e-19
9.086668156e-19
9.294637312e-19
9.509215305e-19
9.730673981e-19
9.95929592e-19
1.019537483e-18
1.043921593e-18
1.069113642e-18
1.09514659e-18
1.122054686e-18
1.149873518e-18
1.178640068e-18
1.208392765e-18
1.239171555e-18
1.271017957e-18
1.303975139e-18
1.338087998e-18
1.373403236e-18
1.409969459e-18
1.447837277e-18
1.487059411e-18
1.527690823e-18
1.569788854e-18
1.61341338e-18
1.658626986e-18
1.705495173e-18
1.754086581e-18
1.804473256e-18
1.85673095e-18
1.910939472e-18
1.967183091e-18
2.02555101e-18
2.086137917e-18
2.149044625e-18
2.214378834e-18
2.282256019e-18
2.352800475e-18
2.426146558e-18
2.502440145e-18
2.581840369e-18
2.664521666e-18
2.75067621e-18
2.840516808e-18
2.934280325e-18
3.032231775e-18
3.13466917e-18
3.241929304e-18
3.354394632e-18
3.472501463e-18
3.596749729e-18
3.72771461e-18
3.866060402e-18
4.012557043e-18
4.168099812e-18
4.333732821e-18
4.510677022e-18
4.700363606e-18
4.904473834e-18
5.124986538e-18
5.36423478e-18
5.624973421e-18
5.91045973e-18
6.224549519e-18
6.571811845e-18
6.957665824e-18
7.388543871e-18
7.872086457e-18
8.417374504e-18
9.035206708e-18
9.738430527e-18
1.054233726e-17
1.146513372e-17
1.252850542e-17
1.375828923e-17
1.518527692e-17
1.684617537e-17
1.878475438e-17
2.105321921e-17
2.371385251e-17
2.684097965e-17
3.052332218e-17
3.486681797e-17
3.999800303e-17
4.606806978e-17
5.325774172e-17
6.17831343e-17
7.190280951e-17
8.392627765e-17
9.822425755e-17
1.152410777e-16
1.355096905e-16
1.59669885e-16
1.884904237e-16
2.228960128e-16
2.640002403e-16
3.131459153e-16
3.719546163e-16
4.423877495e-16
5.268220519e-16
6.281433119e-16
7.4986317e-16
8.962653162e-16
1.072589321e-15
1.285262914e-15
1.542196973e-15
1.853162168e-15
2.230272521e-15
2.68860981e-15
3.247034635e-15
3.929246313e-15
4.765176615e-15
5.7928341e-15
7.060760635e-15
8.631325016e-15
1.058516904e-14
1.30272513e-14
1.609512189e-14
1.997033573e-14
2.48943151e-14
3.119056921e-14
3.929606914e-14
4.980591483e-14
6.353745628e-14
8.162311753e-14
1.05645908e-13
1.378389215e-13
1.813814953e-13
2.408424951e-13
3.228491899e-13
4.371045026e-13
5.979459724e-13
8.267526893e-13
1.155688185e-12
1.633561175e-12
2.3350635e-12
3.375422985e-12
4.933780617e-12
7.290680843e-12
1.088846181e-11
1.642887395e-11
2.503126481e-11
3.848925452e-11
5.968732636e-11
9.327639942e-11
1.467673581e-10
2.322961658e-10
3.694625443e-10
5.898746688e-10
9.443869293e-10
1.514557679e-09
2.43066658e-09
3.899839497e-09
6.249602568e-09
9.994749551e-09
1.593905594e-08
2.532846417e-08
4.007934097e-08
6.311479374e-08
9.885457979e-08
1.539211066e-07
2.381089546e-07
3.65976702e-07
5.582060476e-07
8.46479878e-07
1.274660949e-06
1.905123157e-06
2.803619904e-06
4.086392702e-06
5.890808367e-06
8.386726729e-06
1.177693883e-05
1.629844727e-05
2.22261518e-05
2.988009877e-05
3.961385383e-05
5.181332389e-05
6.689520946e-05
8.558653777e-05
0.0001077518524
0.0001340478948
0.0001646951024
0.0001999335915
0.0002382271368
0.0002783427953
0.0003176729237
0.0003527020859
0.0003789045485
0.000391990419
0.0003889705219
0.0003692677753
0.0003352035565
0.0002914328418
0.0002434417151
0.0001966587753
0.0001542763413
0.0001184980367
8.949885445e-05
6.677029576e-05
4.939289136e-05
3.634288557e-05
2.661294729e-05
1.939454927e-05
1.411380178e-05
1.026568011e-05
7.467310684e-06
5.435339972e-06
3.958887668e-06
2.885402099e-06
2.104265383e-06
1.536467319e-06
1.127846813e-06
8.293436064e-07
6.094914032e-07
4.488092307e-07
3.310984826e-07
2.446722339e-07
1.81084469e-07
1.342130544e-07
9.961897325e-08
7.402941671e-08
5.50813466e-08
4.103242158e-08
3.060277359e-08
2.285062005e-08
1.708185878e-08
1.278417466e-08
9.578901461e-09
7.185784756e-09
5.397142262e-09
4.058884016e-09
3.056549793e-09
2.305021949e-09
1.740935429e-09
1.317070114e-09
9.982023259e-10
7.580319381e-10
5.769034671e-10
4.401140443e-10
3.366557512e-10
2.582798315e-10
1.987997051e-10
1.535713524e-10
1.191055783e-10
9.277843542e-11
7.261477586e-11
5.71263358e-11
4.519051989e-11
3.59595873e-11
2.87925645e-11
2.320416037e-11
1.882641026e-11
1.53798563e-11
1.265187702e-11
1.048038016e-11
8.741521732e-12
7.340449205e-12
6.204318109e-12
5.27701846e-12
4.515188263e-12
3.88519649e-12
3.36085689e-12
2.921693179e-12
2.551620609e-12
2.237942255e-12
1.97058346e-12
1.741506683e-12
1.544263202e-12
1.37364878e-12
1.225438427e-12
1.096181452e-12
9.830425607e-13
8.836781941e-13
7.961399034e-13
7.187985288e-13
6.502844254e-13
5.894401104e-13
5.352825606e-13
4.86973031e-13
4.437927647e-13
4.05123332e-13
3.704306294e-13
3.392517805e-13
3.111843546e-13
2.858774432e-13
2.630242344e-13
2.42355802e-13
2.236358848e-13
2.066564775e-13
1.912340906e-13
1.772065646e-13
1.644303453e-13
1.527781454e-13
1.421369314e-13
1.324061839e-13
1.234963908e-13
1.153277393e-13
1.078289761e-13
1.009364133e-13
9.45930592e-14
8.874785682e-14
8.335501563e-14
7.837342407e-14
7.376613245e-14
6.949989708e-14
6.554477777e-14
6.187378216e-14
5.84625509e-14
5.528907882e-14
5.233346757e-14
4.957770604e-14
4.700547528e-14
4.460197486e-14
4.235376837e-14
4.02486457e-14
3.827550019e-14
3.642421894e-14
3.468558489e-14
3.305118916e-14
3.151335266e-14
3.006505585e-14
2.869987579e-14
2.741192966e-14
2.619582406e-14
2.504660943e-14
2.39597391e-14
2.293103242e-14
2.195664151e-14
2.103302139e-14
2.015690294e-14
1.932526853e-14
1.853533003e-14
1.778450886e-14
1.707041799e-14
1.639084564e-14
1.57437405e-14
1.512719828e-14
1.45394496e-14
1.397884888e-14
1.344386433e-14
1.29330688e-14
1.244513142e-14
1.197881009e-14
1.153294447e-14
1.110644974e-14
1.069831081e-14
1.030757705e-14
9.933357447e-15
9.574816241e-15
9.231168837e-15
8.90167812e-15
8.585651043e-15
8.282435508e-15
7.991417493e-15
7.712018409e-15
7.443692669e-15
7.18592545e-15
6.938230626e-15
6.700148864e-15
6.471245862e-15
6.251110727e-15
6.039354471e-15
5.835608613e-15
5.639523901e-15
5.450769108e-15
5.269029927e-15
5.094007945e-15
4.925419681e-15
4.762995705e-15
4.606479804e-15
4.455628217e-15
4.310208915e-15
4.170000934e-15
4.034793751e-15
3.904386698e-15
3.778588422e-15
3.657216372e-15
3.540096325e-15
3.427061938e-15
3.31795433e-15
3.212621691e-15
3.110918915e-15
3.012707251e-15
2.91785398e-15
2.826232114e-15
2.737720103e-15
2.652201566e-15
2.569565042e-15
2.489703742e-15
2.41251533e-15
2.337901704e-15
2.2657688e-15
2.196026396e-15
2.128587937e-15
2.063370362e-15
2.000293945e-15
1.939282141e-15
1.880261444e-15
1.823161246e-15
1.767913712e-15
1.714453656e-15
1.662718423e-15
1.612647779e-15
1.564183805e-15
1.517270798e-15
1.471855176e-15
1.427885389e-15
1.385311829e-15
1.344086752e-15
1.304164198e-15
1.265499918e-15
1.228051303e-15
1.191777315e-15
1.156638426e-15
1.122596554e-15
1.089615005e-15
1.057658417e-15
1.026692708e-15
9.966850235e-16
9.676036894e-16
9.394181637e-16
9.120989933e-16
8.85617771e-16
8.599470949e-16
8.350605297e-16
8.109325692e-16
7.875386008e-16
7.648548711e-16
7.428584539e-16
7.215272178e-16
7.008397973e-16
6.807755633e-16
6.613145958e-16
6.424376575e-16
6.241261683e-16
6.06362181e-16
5.891283582e-16
5.724079497e-16
5.561847708e-16
5.404431823e-16
5.251680699e-16
5.103448258e-16
4.959593301e-16
4.819979335e-16
4.6844744e-16
4.552950912e-16
4.425285504e-16
4.301358876e-16
4.181055652e-16
4.064264243e-16
3.950876711e-16
3.840788642e-16
3.733899023e-16
3.630110124e-16
3.529327381e-16
3.431459291e-16
3.3364173e-16
3.244115708e-16
3.154471566e-16
3.067404582e-16
2.982837033e-16
2.900693676e-16
2.820901662e-16
2.743390456e-16
2.668091761e-16
2.594939437e-16
2.523869433e-16
2.454819717e-16
2.387730205e-16
2.322542698e-16
2.259200818e-16
2.197649951e-16
2.137837182e-16
2.079711246e-16
2.023222469e-16
1.968322715e-16
1.914965338e-16
1.863105134e-16
1.812698289e-16
1.76370234e-16
1.716076124e-16
1.669779742e-16
1.624774515e-16
1.581022944e-16
1.538488675e-16
1.497136457e-16
1.456932111e-16
1.417842495e-16
1.379835468e-16
1.342879862e-16
1.306945447e-16
1.272002904e-16
1.238023796e-16
1.204980537e-16
1.17284637e-16
1.141595335e-16
1.11120225e-16
1.081642682e-16
1.052892925e-16
1.024929977e-16
9.977315207e-17
9.712758964e-17
9.455420869e-17
9.205096948e-17
8.961589241e-17
8.724705615e-17
8.494259581e-17
8.270070124e-17
8.051961532e-17
7.839763232e-17
7.633309635e-17
7.432439982e-17
7.236998197e-17
7.046832741e-17
6.861796478e-17
6.681746539e-17
6.506544191e-17
6.336054716e-17
6.170147284e-17
6.008694839e-17
5.851573984e-17
5.698664872e-17
5.549851098e-17
5.405019594e-17
5.264060535e-17
5.126867233e-17
4.993336052e-17
4.863366312e-17
4.736860201e-17
4.613722693e-17
4.493861461e-17
4.3771868e-17
4.263611549e-17
4.153051013e-17
4.045422896e-17
3.940647223e-17
3.838646279e-17
3.739344536e-17
3.642668593e-17
3.548547115e-17
3.456910765e-17
3.367692156e-17
3.280825786e-17
3.196247987e-17
3.113896869e-17
3.033712272e-17
2.955635713e-17
2.879610339e-17
2.805580877e-17
2.733493592e-17
2.663296241e-17
2.594938029e-17
2.528369569e-17
2.463542842e-17
2.400411154e-17
2.338929103e-17
2.279052538e-17
2.220738526e-17
2.163945316e-17
2.108632305e-17
2.054760004e-17
2.002290012e-17
1.951184978e-17
1.901408574e-17
1.852925469e-17
1.805701294e-17
1.759702623e-17
1.71489694e-17
1.671252615e-17
1.628738881e-17
1.587325807e-17
1.546984278e-17
1.507685966e-17
1.469403315e-17
1.432109516e-17
1.395778484e-17
1.360384842e-17
1.325903899e-17
1.29231163e-17
1.259584659e-17
1.227700241e-17
1.196636243e-17
1.166371129e-17
1.136883942e-17
1.108154288e-17
1.080162321e-17
1.052888727e-17
1.02631471e-17
1.000421978e-17
9.751927286e-18
9.506096355e-18
9.266558353e-18
9.033149151e-18
8.805708998e-18
8.584082405e-18
8.368118024e-18
8.157668536e-18
7.952590543e-18
7.752744457e-18
7.557994398e-18
7.368208095e-18
7.183256782e-18
7.003015108e-18
6.827361041e-18
6.656175779e-18
6.489343662e-18
6.326752087e-18
6.168291423e-18
6.013854935e-18
5.863338702e-18
5.71664154e-18
5.573664932e-18
5.434312953e-18
5.298492201e-18
5.166111729e-18
5.037082979e-18
4.911319717e-18
4.788737971e-18
4.66925597e-18
4.552794088e-18
4.439274779e-18
4.32862253e-18
4.220763799e-18
4.115626969e-18
4.013142291e-18
3.913241836e-18
3.815859449e-18
3.720930696e-18
3.628392825e-18
3.538184716e-18
3.450246837e-18
3.364521208e-18
3.280951352e-18
3.199482261e-18
3.120060354e-18
3.042633438e-18
2.967150676e-18
2.893562545e-18
2.821820805e-18
2.751878466e-18
2.68368975e-18
2.617210063e-18
2.552395963e-18
2.489205129e-18
2.42759633e-18
2.3675294e-18
2.308965205e-18
2.251865619e-18
2.196193497e-18
2.141912647e-18
2.088987806e-18
2.037384618e-18
1.987069606e-18
1.938010149e-18
1.890174463e-18
1.843531574e-18
1.798051301e-18
1.753704231e-18
1.710461699e-18
1.668295773e-18
1.627179226e-18
1.587085524e-18
1.547988805e-18
1.509863858e-18
1.472686111e-18
1.436431608e-18
1.401076995e-18
1.366599504e-18
1.332976933e-18
1.300187634e-18
1.268210495e-18
1.237024927e-18
1.206610844e-18
1.176948654e-18
1.148019241e-18
1.119803951e-18
1.092284576e-18
1.065443344e-18
1.039262901e-18
1.0137263e-18
9.888169847e-19
9.645187759e-19
9.408158597e-19
9.176927716e-19
8.951343834e-19
8.73125889e-19
8.516527903e-19
8.307008826e-19
8.102562405e-19
7.903052027e-19
7.708343575e-19
7.518305271e-19
7.332807524e-19
7.15172277e-19
6.974925312e-19
6.802291162e-19
6.633697875e-19
6.469024392e-19
6.308150885e-19
6.150958609e-19
5.997329773e-19
5.847147429e-19
5.700295398e-19
5.556658237e-19
5.416121271e-19
5.278570705e-19
5.143893825e-19
5.011979322e-19
4.882717732e-19
4.756001945e-19
4.631727851e-19
4.509794862e-19
4.390106212e-19
4.272568796e-19
3.33277103e-19
2.365978756e-19
1.680735879e-19
1.192827914e-19
8.455154101e-20
5.98545181e-20
4.23138212e-20
2.987163267e-20
2.105769044e-20
1.482255009e-20
1.041795447e-20
7.311015576e-21
5.122695681e-21
3.583739199e-21
2.503135019e-21
1.745568566e-21
1.215320412e-21
8.447812292e-22
5.862698706e-22
4.062121975e-22
2.810054158e-22
1.940837045e-22
1.33839567e-22
9.215344651e-23
6.335529141e-23
4.349238835e-23
2.981395341e-23
2.040895929e-23
1.395205493e-23
9.525650571e-24
6.495540396e-24
4.42412147e-24
3.009945218e-24
2.045692256e-24
1.389005748e-24
9.422867246e-25
6.38721889e-25
4.326389747e-25
2.928604908e-25
1.981316948e-25
1.339806694e-25
9.056541282e-26
6.119999613e-26
4.134713383e-26
2.793056737e-26
1.886638215e-26
1.274396999e-26
8.609126927e-27
5.816751631e-27
3.930932982e-27
2.657224717e-27
1.796798942e-27
1.215421208e-27
8.224796019e-28
5.568083725e-28
3.771169156e-28
2.555274722e-28
1.732166956e-28
1.174710718e-28
7.96981035e-29
5.409233323e-29
3.672549011e-29
2.494238307e-29
1.694400839e-29
1.151264768e-29
7.82340308e-30
5.316900237e-30
3.613561446e-30
2.455911714e-30
1.669186259e-30
1.134462378e-30
7.71274864e-31
5.246569782e-31
3.572434166e-31
2.439301718e-31
1.665404579e-31
1.142293547e-31
7.90715125e-32
5.513089246e-32
3.913342446e-32
2.81257899e-32
2.079372088e-32
1.59345952e-32
1.298594542e-32
1.060846155e-32
9.080847769e-33
8.110396441e-33
7.489029318e-33
7.082523324e-33
6.839643943e-33
6.689633991e-33
6.55329438e-33
6.475396918e-33
6.424595733e-33
6.39292581e-33
6.374436839e-33
6.365687017e-33
6.372132483e-33
6.357505639e-33
6.356315597e-33
6.353235759e-33
6.354361107e-33
6.35888292e-33
6.354338452e-33
6.353491208e-33
6.352484656e-33
6.357272921e-33
6.361377166e-33
6.354749534e-33
6.348198432e-33
6.351084001e-33
6.351464221e-33
6.350118783e-33
6.350578493e-33
6.352739575e-33
6.351936971e-33
6.35407427e-33
6.350603617e-33
6.352261424e-33
6.353263558e-33
6.347789773e-33
6.352172745e-33
6.351040615e-33
6.346241913e-33
6.34950296e-33
6.3456862e-33
6.349574373e-33
6.346141212e-33
6.352055659e-33
6.348276831e-33
6.345559081e-33
6.347767868e-33
6.344410514e-33
6.345588839e-33
6.358272694e-33
6.35402134e-33
6.35397416e-33
6.352775258e-33
6.359345633e-33
6.347354168e-33
6.347582551e-33
6.344061583e-33
6.352395892e-33
6.344063889e-33
6.347290012e-33
6.350268076e-33
6.346453603e-33
6.347989842e-33
6.343325799e-33
6.343687637e-33
6.345980328e-33
6.347691306e-33
6.352693901e-33
6.354089886e-33
6.349137782e-33
6.353203085e-33
6.345644219e-33
6.359002669e-33
6.348056531e-33
6.34855468e-33
6.352364787e-33
6.343186517e-33
6.344908564e-33
6.34497395e-33
6.348336637e-33
6.345231745e-33
6.342118814e-33
6.342836458e-33
6.344429335e-33
6.349789781e-33
6.343879075e-33
6.346552898e-33
6.341595357e-33
6.344279216e-33
6.343253033e-33
6.347843052e-33
6.349674845e-33
6.35115205e-33
6.343542776e-33
6.345402881e-33
6.344866249e-33
6.349662608e-33
6.346620803e-33
6.343279664e-33
6.344732335e-33
6.342607899e-33
6.342105633e-33
6.35015192e-33
6.347188638e-33
6.341846948e-33
6.342554482e-33
6.346999636e-33
6.342032061e-33
6.345224139e-33
6.344181402e-33
6.344424889e-33
6.352698239e-33
6.348619524e-33
6.350178122e-33
6.345542054e-33
6.341029271e-33
6.34448828e-33
6.347943326e-33
6.345782012e-33
6.344600521e-33
6.348304973e-33
6.34797442e-33
6.344053648e-33
6.343425181e-33
6.348770607e-33
6.342870307e-33
6.344472835e-33
6.340914886e-33
6.343438165e-33
6.345027519e-33
6.343296023e-33
6.34308143e-33
6.348463034e-33
6.345086821e-33
6.342437522e-33
6.344198337e-33
6.347232425e-33
6.344783347e-33
6.346273361e-33
6.347286382e-33
6.341966088e-33
6.341927916e-33
6.346986348e-33
6.343934017e-33
6.343788149e-33
6.345801967e-33
6.34718892e-33
6.341141179e-33
6.34387127e-33
6.34127224e-33
6.344700303e-33
6.351277369e-33
6.345350106e-33
6.344972076e-33
6.339910881e-33
6.342271055e-33
6.340253188e-33
6.339470131e-33
6.346605192e-33
6.340225307e-33
6.337456974e-33
6.342065162e-33
6.352628943e-33
6.342979644e-33
6.339945044e-33
)
;

boundaryField
{
    inlet
    {
        type            fixedValue;
        value           uniform 0;
    }
    outlet
    {
        type            zeroGradient;
    }
    wall
    {
        type            empty;
    }
}


// ************************************************************************* //
