/*--------------------------------*- C++ -*----------------------------------*\
  =========                 |
  \\      /  F ield         | OpenFOAM: The Open Source CFD Toolbox
   \\    /   O peration     | Website:  https://openfoam.org
    \\  /    A nd           | Version:  7
     \\/     M anipulation  |
\*---------------------------------------------------------------------------*/
FoamFile
{
    version     2.0;
    format      ascii;
    class       volScalarField;
    location    "0.000558243009";
    object      C3H5O;
}
// * * * * * * * * * * * * * * * * * * * * * * * * * * * * * * * * * * * * * //

dimensions      [0 0 0 0 0 0 0];

internalField   nonuniform List<scalar> 
1500
(
9.916070954e-24
1.801975704e-23
1.648618918e-23
1.170077546e-23
8.133088446e-24
6.239879992e-24
5.377867194e-24
5.020540723e-24
4.883908075e-24
4.835949054e-24
4.820852473e-24
4.817018347e-24
4.816762233e-24
4.817529134e-24
4.818497124e-24
4.819402337e-24
4.82016649e-24
4.820780259e-24
4.821260979e-24
4.821632971e-24
4.821917696e-24
4.822130184e-24
4.822279599e-24
4.822371854e-24
4.82241251e-24
4.822408781e-24
4.822370219e-24
4.822308232e-24
4.822234886e-24
4.822161538e-24
4.822097712e-24
4.822050444e-24
4.822024137e-24
4.822020811e-24
4.822040568e-24
4.822082108e-24
4.822143198e-24
4.822221025e-24
4.822312443e-24
4.822414134e-24
4.822522714e-24
4.822634845e-24
4.822747362e-24
4.82285742e-24
4.822962631e-24
4.823061177e-24
4.823151875e-24
4.82323417e-24
4.823308081e-24
4.823374087e-24
4.823432991e-24
4.823485766e-24
4.823533414e-24
4.823576847e-24
4.823616802e-24
4.823653784e-24
4.82368804e-24
4.823719564e-24
4.823748122e-24
4.823773288e-24
4.823794488e-24
4.82381105e-24
4.823822255e-24
4.823827379e-24
4.823825745e-24
4.823816763e-24
4.82379998e-24
4.823775111e-24
4.823742073e-24
4.823701013e-24
4.823652317e-24
4.823596621e-24
4.823534803e-24
4.823467964e-24
4.823397402e-24
4.823324579e-24
4.82325107e-24
4.823178523e-24
4.823108609e-24
4.823042969e-24
4.822983173e-24
4.822930674e-24
4.822886773e-24
4.822852585e-24
4.822829019e-24
4.822816754e-24
4.822816234e-24
4.822827661e-24
4.822851001e-24
4.822885981e-24
4.822932109e-24
4.822988679e-24
4.82305479e-24
4.823129372e-24
4.823211205e-24
4.823298949e-24
4.823391179e-24
4.823486417e-24
4.823583169e-24
4.823679965e-24
4.823775395e-24
4.82386815e-24
4.823957053e-24
4.824041093e-24
4.824119451e-24
4.824191516e-24
4.824256897e-24
4.824315422e-24
4.824367131e-24
4.824412256e-24
4.824451196e-24
4.824484487e-24
4.824512759e-24
4.824536702e-24
4.824557022e-24
4.824574407e-24
4.824589492e-24
4.824602834e-24
4.824614893e-24
4.824626018e-24
4.82463645e-24
4.824646323e-24
4.824655679e-24
4.824664482e-24
4.824672637e-24
4.824680015e-24
4.824686466e-24
4.824691844e-24
4.824696016e-24
4.82469887e-24
4.824700323e-24
4.824700317e-24
4.824698818e-24
4.8246958e-24
4.824691243e-24
4.824685118e-24
4.824677375e-24
4.824667936e-24
4.824656691e-24
4.824643491e-24
4.824628156e-24
4.824610473e-24
4.824590214e-24
4.824567143e-24
4.824541032e-24
4.824511679e-24
4.824478922e-24
4.824442653e-24
4.824402834e-24
4.824359507e-24
4.824312795e-24
4.824262911e-24
4.824210152e-24
4.824154895e-24
4.824097588e-24
4.82403874e-24
4.823978904e-24
4.823918666e-24
4.823858629e-24
4.823799401e-24
4.823741583e-24
4.823685759e-24
4.823632488e-24
4.823582303e-24
4.823535709e-24
4.823493181e-24
4.823455167e-24
4.823422095e-24
4.82339437e-24
4.823372378e-24
4.823356486e-24
4.82334704e-24
4.823344357e-24
4.82334872e-24
4.823360365e-24
4.823379467e-24
4.823406125e-24
4.823440346e-24
4.823482027e-24
4.823530939e-24
4.823586709e-24
4.823648811e-24
4.82371655e-24
4.823789058e-24
4.823865291e-24
4.823944033e-24
4.824023909e-24
4.824103402e-24
4.824180888e-24
4.824254673e-24
4.824323045e-24
4.82438433e-24
4.824436957e-24
4.824479524e-24
4.824510853e-24
4.82453005e-24
4.824536535e-24
4.824530065e-24
4.824510724e-24
4.824478898e-24
4.824435228e-24
4.824380545e-24
4.824315804e-24
4.824242018e-24
4.824160211e-24
4.82407139e-24
4.823976553e-24
4.823876732e-24
4.823773054e-24
4.823666831e-24
4.823559643e-24
4.8234534e-24
4.823350354e-24
4.823253042e-24
4.823164138e-24
4.823086209e-24
4.823021379e-24
4.822970914e-24
4.822934787e-24
4.82291125e-24
4.822896496e-24
4.822884471e-24
4.822866909e-24
4.822833633e-24
4.822773162e-24
4.82267361e-24
4.822523858e-24
4.822314889e-24
4.822041189e-24
4.821702052e-24
4.821302605e-24
4.820854398e-24
4.820375366e-24
4.819889063e-24
4.819423094e-24
4.819006755e-24
4.818667988e-24
4.81842985e-24
4.818306805e-24
4.81830123e-24
4.818400692e-24
4.818576782e-24
4.818786885e-24
4.818981571e-24
4.81912271e-24
4.819220288e-24
4.819393753e-24
4.819938746e-24
4.821289952e-24
4.823549022e-24
4.824250081e-24
4.824486944e-24
4.824735509e-24
4.824996456e-24
4.825270335e-24
4.825557718e-24
4.82585923e-24
4.826175551e-24
4.826507406e-24
4.826855561e-24
4.827220816e-24
4.82760401e-24
4.82800602e-24
4.828427767e-24
4.828870214e-24
4.829334372e-24
4.829821304e-24
4.830332123e-24
4.830867998e-24
4.831430158e-24
4.832019893e-24
4.832638558e-24
4.833287577e-24
4.833968445e-24
4.834682735e-24
4.835432103e-24
4.836218286e-24
4.837043116e-24
4.837908517e-24
4.838816516e-24
4.839769249e-24
4.840768961e-24
4.841818021e-24
4.842918923e-24
4.844074297e-24
4.845286916e-24
4.846559703e-24
4.847895743e-24
4.849298291e-24
4.850770782e-24
4.852316844e-24
4.853940306e-24
4.855645216e-24
4.857435849e-24
4.859316725e-24
4.861292622e-24
4.86336859e-24
4.865549976e-24
4.86784243e-24
4.870251938e-24
4.87278483e-24
4.875447809e-24
4.878247975e-24
4.881192845e-24
4.884290381e-24
4.88754902e-24
4.8909777e-24
4.894585895e-24
4.898383645e-24
4.902381593e-24
4.906591023e-24
4.911023896e-24
4.915692899e-24
4.92061148e-24
4.925793905e-24
4.931255298e-24
4.937011703e-24
4.943080133e-24
4.949478629e-24
4.956226328e-24
4.96334352e-24
4.970851724e-24
4.978773757e-24
4.987133812e-24
4.995957537e-24
5.005272123e-24
5.015106389e-24
5.025490881e-24
5.036457965e-24
5.048041934e-24
5.060279115e-24
5.073207983e-24
5.086869279e-24
5.101306137e-24
5.116564211e-24
5.132691812e-24
5.149740052e-24
5.167762989e-24
5.186817785e-24
5.206964863e-24
5.228268079e-24
5.250794892e-24
5.274616547e-24
5.299808265e-24
5.326449432e-24
5.354623808e-24
5.384419732e-24
5.415930341e-24
5.449253789e-24
5.484493485e-24
5.521758325e-24
5.561162941e-24
5.602827951e-24
5.646880223e-24
5.693453138e-24
5.742686864e-24
5.79472864e-24
5.849733059e-24
5.907862367e-24
5.969286755e-24
6.034184675e-24
6.102743144e-24
6.175158064e-24
6.251634545e-24
6.332387229e-24
6.417640625e-24
6.50762944e-24
6.602598922e-24
6.702805195e-24
6.80851561e-24
6.920009083e-24
7.037576446e-24
7.16152079e-24
7.292157816e-24
7.429816177e-24
7.574837821e-24
7.727578338e-24
7.88840729e-24
8.057708552e-24
8.235880636e-24
8.423337016e-24
8.620506445e-24
8.827833263e-24
9.045777696e-24
9.274816149e-24
9.515441484e-24
9.768163287e-24
1.003350813e-23
1.031201981e-23
1.060425957e-23
1.091080633e-23
1.123225688e-23
1.156922603e-23
1.192234683e-23
1.229227066e-23
1.267966738e-23
1.308522543e-23
1.350965193e-23
1.395367272e-23
1.441803239e-23
1.490349434e-23
1.541084074e-23
1.594087253e-23
1.649440934e-23
1.707228945e-23
1.767536965e-23
1.830452518e-23
1.896064955e-23
1.964465438e-23
2.035746923e-23
2.110004138e-23
2.187333563e-23
2.267833404e-23
2.351603568e-23
2.438745637e-23
2.529362837e-23
2.623560011e-23
2.721443588e-23
2.823121551e-23
2.928703407e-23
3.038300157e-23
3.152024263e-23
3.26998962e-23
3.392311526e-23
3.519106657e-23
3.650493043e-23
3.78659004e-23
3.927518322e-23
4.073399855e-23
4.224357894e-23
4.380516976e-23
4.542002922e-23
4.708942844e-23
4.881465158e-23
5.059699615e-23
5.243777327e-23
5.433830816e-23
5.629994069e-23
5.832402603e-23
6.041193554e-23
6.256505766e-23
6.478479913e-23
6.707258624e-23
6.94298664e-23
7.18581098e-23
7.435881143e-23
7.693349318e-23
7.958370637e-23
8.231103444e-23
8.511709594e-23
8.800354795e-23
9.097208972e-23
9.402446672e-23
9.716247509e-23
1.003879665e-22
1.037028534e-22
1.071091149e-22
1.106088028e-22
1.142040486e-22
1.178970706e-22
1.216901822e-22
1.255858e-22
1.295864532e-22
1.336947937e-22
1.379136063e-22
1.422458207e-22
1.46694523e-22
1.512629696e-22
1.559546007e-22
1.607730552e-22
1.657221873e-22
1.708060829e-22
1.760290781e-22
1.813957784e-22
1.869110795e-22
1.925801892e-22
1.984086505e-22
2.044023665e-22
2.105676264e-22
2.169111339e-22
2.23440036e-22
2.301619551e-22
2.370850214e-22
2.442179086e-22
2.515698709e-22
2.591507821e-22
2.669711775e-22
2.750422979e-22
2.83376136e-22
2.919854856e-22
3.008839934e-22
3.100862144e-22
3.196076694e-22
3.294649066e-22
3.396755659e-22
3.502584478e-22
3.612335852e-22
3.726223198e-22
3.844473824e-22
3.967329784e-22
4.095048773e-22
4.227905077e-22
4.366190577e-22
4.510215811e-22
4.660311091e-22
4.816827694e-22
4.980139111e-22
5.150642381e-22
5.328759492e-22
5.514938876e-22
5.709656996e-22
5.913420027e-22
6.126765652e-22
6.350264933e-22
6.584524531e-22
6.830188679e-22
7.087941384e-22
7.358508945e-22
7.642662446e-22
7.941220522e-22
8.255052306e-22
8.585080564e-22
8.932285048e-22
9.297706097e-22
9.682448516e-22
1.008768578e-21
1.051466459e-21
1.096470988e-21
1.143923009e-21
1.193972352e-21
1.246778479e-21
1.302511231e-21
1.361351667e-21
1.423493038e-21
1.489141857e-21
1.558519113e-21
1.631861683e-21
1.709424003e-21
1.791480021e-21
1.878325512e-21
1.970280852e-21
2.067694344e-21
2.17094627e-21
2.28045383e-21
2.396677205e-21
2.520127056e-21
2.651373821e-21
2.791059314e-21
2.939911222e-21
3.098761326e-21
3.268568418e-21
3.450447243e-21
3.645705093e-21
3.855888182e-21
4.082840496e-21
4.32877858e-21
4.596386677e-21
4.888937884e-21
5.210448547e-21
5.565875166e-21
5.961365642e-21
6.404580037e-21
6.905100219e-21
7.474953234e-21
8.129280137e-21
8.887190952e-21
9.772857737e-21
1.081691235e-20
1.205823406e-20
1.354623606e-20
1.534379034e-20
1.753096949e-20
2.020983399e-20
2.351055722e-20
2.759926269e-20
3.268805213e-20
3.904783762e-20
4.70247618e-20
5.706121025e-20
6.972270018e-20
8.573228958e-20
1.0601461e-19
1.317522151e-19
1.644576887e-19
2.060659218e-19
2.59052196e-19
3.265832931e-19
4.127108639e-19
5.226188731e-19
6.6294024e-19
8.421620193e-19
1.071143875e-18
1.363781518e-18
1.737855621e-18
2.216118065e-18
2.827681824e-18
3.609799362e-18
4.610138087e-18
5.889691763e-18
7.526505529e-18
9.620441842e-18
1.22992781e-17
1.572650791e-17
2.011132175e-17
2.572137578e-17
3.289912722e-17
4.208273211e-17
5.383277935e-17
6.886649001e-17
8.810146587e-17
1.127116522e-16
1.441989232e-16
1.844846502e-16
2.360268261e-16
3.019698776e-16
3.863362812e-16
4.942716434e-16
6.323581524e-16
8.090154672e-16
1.035013418e-15
1.324127686e-15
1.693978307e-15
2.16710195e-15
2.772323088e-15
3.546507334e-15
4.53680335e-15
5.803509389e-15
7.423738327e-15
9.496103423e-15
1.21467088e-14
1.553680753e-14
1.987259116e-14
2.541770293e-14
3.250923185e-14
4.157815429e-14
5.317545823e-14
6.800552709e-14
8.696879721e-14
1.112162602e-13
1.422190919e-13
1.818575987e-13
2.325348244e-13
2.973216416e-13
3.80142026e-13
4.860096117e-13
6.213296786e-13
7.942846141e-13
1.015325849e-12
1.297801585e-12
1.658757679e-12
2.119959303e-12
2.70919407e-12
3.461933978e-12
4.423454753e-12
5.651538318e-12
7.219918686e-12
9.222675892e-12
1.177983927e-11
1.504453424e-11
1.921210065e-11
2.453173245e-11
3.132134674e-11
3.998659854e-11
5.104523272e-11
6.515833233e-11
8.317051795e-11
1.061618255e-10
1.355149111e-10
1.730024968e-10
2.209017195e-10
2.821444582e-10
3.605160493e-10
4.609194009e-10
5.897278496e-10
7.552588167e-10
9.684123021e-10
1.24353475e-09
1.599591542e-09
2.061762569e-09
2.66361775e-09
3.450085785e-09
4.481501883e-09
5.839108236e-09
7.6324792e-09
1.000943725e-08
1.316908635e-08
1.737856113e-08
2.299387319e-08
3.048465487e-08
4.046136739e-08
5.370118354e-08
7.116466667e-08
9.398878122e-08
1.234323378e-07
1.607386823e-07
2.068718888e-07
2.620883453e-07
3.253244992e-07
3.936534183e-07
4.615677948e-07
5.218867867e-07
5.661269155e-07
5.87541066e-07
5.838235743e-07
5.573511522e-07
5.153344804e-07
4.647843417e-07
4.107057032e-07
3.558573153e-07
3.030091984e-07
2.538223986e-07
2.101370439e-07
1.732832712e-07
1.436869993e-07
1.204704542e-07
1.034574369e-07
9.102871072e-08
8.202859344e-08
7.530141594e-08
7.005748674e-08
6.540284891e-08
6.07090911e-08
5.552709955e-08
4.968574961e-08
4.314781076e-08
3.617774892e-08
2.921110234e-08
2.272671301e-08
1.710011047e-08
1.248317626e-08
8.943114583e-09
6.301671377e-09
4.40972464e-09
3.073359546e-09
2.140785125e-09
1.494459243e-09
1.048219285e-09
7.362649217e-10
5.184859005e-10
3.674259115e-10
2.622021531e-10
1.885224354e-10
1.366184144e-10
9.980413759e-11
7.350074175e-11
5.455975398e-11
4.081708742e-11
3.099354521e-11
2.373905705e-11
1.825585692e-11
1.415513592e-11
1.106126757e-11
8.706124401e-12
6.897793642e-12
5.49799264e-12
4.407754384e-12
3.550538708e-12
2.873179558e-12
2.334837151e-12
1.904706222e-12
1.559359214e-12
1.280842161e-12
1.055296854e-12
8.719546898e-13
7.223955612e-13
5.999974385e-13
4.995243518e-13
4.168156292e-13
3.485498187e-13
2.920641107e-13
2.452153174e-13
2.062721647e-13
1.738313969e-13
1.46752044e-13
1.241036704e-13
1.051254406e-13
8.919359796e-14
7.579552099e-14
6.4508951e-14
5.498530049e-14
4.693619752e-14
4.012260591e-14
3.434600293e-14
2.944120666e-14
2.527052974e-14
2.171900321e-14
1.869046562e-14
1.610435404e-14
1.389306553e-14
1.199978346e-14
1.037668345e-14
8.983449898e-15
7.786047245e-15
6.755700466e-15
5.868047758e-15
5.102435224e-15
4.441328823e-15
3.86982333e-15
3.375231696e-15
2.946741132e-15
2.575124648e-15
2.252498779e-15
1.972119805e-15
1.728212118e-15
1.515823474e-15
1.330702749e-15
1.169196571e-15
1.028161803e-15
9.048913508e-16
7.970511813e-16
7.026268101e-16
6.198777633e-16
5.472987876e-16
4.835867698e-16
4.276124911e-16
3.783964845e-16
3.350883757e-16
2.969491856e-16
2.633361538e-16
2.336897109e-16
2.075222825e-16
1.844086591e-16
1.639777039e-16
1.459052051e-16
1.299077101e-16
1.157372002e-16
1.031764884e-16
9.2035237e-17
8.214650951e-17
7.336378221e-17
6.555835149e-17
5.861708303e-17
5.244045597e-17
4.694086189e-17
4.204112432e-17
3.767320909e-17
3.377710003e-17
3.029981806e-17
2.719456469e-17
2.441997368e-17
2.193945657e-17
1.972063001e-17
1.77348142e-17
1.595659341e-17
1.436343047e-17
1.293532856e-17
1.165453408e-17
1.050527561e-17
9.473534307e-18
8.546841924e-18
7.714102875e-18
6.965437513e-18
6.292043933e-18
5.686076048e-18
5.140535962e-18
4.649178893e-18
4.206429146e-18
3.807305794e-18
3.447356912e-18
3.122601344e-18
2.829477115e-18
2.564795693e-18
2.325701424e-18
2.109635529e-18
1.914304138e-18
1.737649881e-18
1.57782664e-18
1.433177095e-18
1.302212729e-18
1.183596039e-18
1.076124677e-18
9.787173234e-19
8.904010813e-19
8.10300234e-19
7.376262071e-19
6.71668603e-19
6.117871903e-19
5.574047421e-19
5.08000629e-19
4.631050869e-19
4.222940847e-19
3.85184727e-19
3.514311339e-19
3.207207482e-19
2.927710225e-19
2.673264462e-19
2.441558774e-19
2.230501458e-19
2.038198991e-19
1.862936679e-19
1.703161249e-19
1.557465187e-19
1.42457265e-19
1.303326777e-19
1.192678264e-19
1.091675061e-19
9.994531015e-20
9.152279255e-20
8.382871363e-20
7.679835894e-20
7.037292378e-20
6.449895859e-20
5.912786738e-20
5.421545438e-20
4.972151437e-20
4.560946209e-20
4.184599779e-20
3.840080358e-20
3.524626889e-20
3.235724258e-20
2.971080744e-20
2.72860766e-20
2.506400874e-20
2.302724053e-20
2.115993493e-20
1.944764356e-20
1.787718112e-20
1.643651292e-20
1.511465115e-20
1.390156186e-20
1.278807959e-20
1.176583054e-20
1.082716227e-20
9.965080212e-21
9.173189355e-21
8.445641836e-21
7.777088741e-21
7.162636499e-21
6.597807134e-21
6.07850224e-21
5.600969756e-21
5.161774305e-21
4.75776956e-21
4.386073375e-21
4.044045064e-21
3.729264765e-21
3.439514461e-21
3.17276072e-21
2.927139179e-21
2.700939783e-21
2.492594101e-21
2.300663001e-21
2.123826094e-21
1.960871362e-21
1.810686239e-21
1.672249327e-21
1.544622509e-21
1.426944315e-21
1.318423292e-21
1.218332265e-21
1.126003051e-21
1.040821476e-21
9.622231201e-22
8.896888759e-22
8.22741447e-22
7.609418588e-22
7.038863631e-22
6.512034629e-22
6.025514131e-22
5.576156172e-22
5.161065169e-22
4.777576033e-22
4.423235163e-22
4.095783329e-22
3.793139492e-22
3.513386935e-22
3.25475873e-22
3.015628586e-22
2.79449643e-22
2.589980973e-22
2.400808558e-22
2.225805337e-22
2.063888335e-22
1.914058468e-22
1.775395939e-22
1.647051121e-22
1.528240085e-22
1.418239845e-22
1.316383529e-22
1.222055875e-22
1.134688085e-22
1.053755877e-22
9.787748764e-23
9.092983402e-23
8.449132844e-23
7.852384535e-23
7.299208761e-23
6.786357221e-23
6.310823382e-23
5.869827636e-23
5.460802088e-23
5.081374801e-23
4.729348448e-23
4.40269804e-23
4.099547705e-23
3.818164862e-23
3.556943666e-23
3.314404223e-23
3.089174953e-23
2.879988061e-23
2.685668404e-23
2.505128713e-23
2.337363466e-23
2.181438085e-23
2.036494263e-23
1.901733884e-23
1.776422537e-23
1.659873886e-23
1.551452611e-23
1.450576999e-23
1.356699796e-23
1.269320533e-23
1.187971229e-23
1.112217498e-23
1.041664722e-23
9.759400441e-24
9.146992555e-24
8.576232088e-24
8.04414118e-24
7.548028491e-24
7.085345867e-24
6.653722314e-24
6.250955505e-24
5.875028927e-24
5.52407204e-24
5.196334385e-24
4.890210187e-24
4.604174539e-24
4.336847927e-24
4.086907672e-24
3.853167889e-24
3.634503349e-24
3.429890153e-24
3.238336086e-24
3.058960434e-24
2.890954147e-24
2.733524011e-24
2.585968694e-24
2.44759261e-24
2.317788305e-24
2.195986719e-24
2.081664259e-24
1.974297576e-24
1.873449129e-24
1.778660141e-24
1.689527513e-24
1.605699956e-24
1.526822891e-24
1.452567386e-24
1.382634668e-24
1.316742573e-24
1.254631774e-24
1.196061162e-24
1.140801476e-24
1.088639835e-24
1.039393339e-24
9.928579524e-25
9.488732376e-25
9.072861356e-25
8.679236011e-25
8.306727964e-25
7.953935903e-25
7.619692232e-25
7.302814644e-25
7.002308386e-25
6.717078221e-25
6.446294072e-25
6.18902936e-25
5.944483063e-25
5.711964891e-25
5.490792692e-25
5.280398531e-25
5.080012862e-25
4.889112976e-25
4.707014567e-25
4.533444983e-25
4.367867047e-25
4.209820431e-25
4.058893407e-25
3.914700246e-25
3.776794527e-25
3.644938159e-25
3.51883457e-25
3.398190615e-25
3.282562714e-25
3.171811426e-25
3.065524047e-25
2.96361904e-25
2.865818038e-25
2.771962338e-25
2.681858927e-25
2.595281192e-25
2.512090898e-25
2.432021475e-25
2.355076469e-25
2.280933275e-25
2.209549652e-25
2.140960474e-25
2.074842679e-25
2.011193331e-25
1.949842209e-25
1.890710373e-25
1.833627749e-25
1.778604913e-25
1.725588233e-25
1.67439269e-25
1.624932349e-25
1.577204353e-25
1.531041166e-25
1.486443756e-25
1.443349244e-25
1.401725514e-25
1.361432894e-25
1.322451892e-25
1.28467612e-25
1.248105814e-25
1.212725685e-25
1.178502106e-25
1.145322289e-25
1.1131934e-25
1.082054793e-25
1.051841321e-25
1.022479689e-25
9.94098936e-26
9.666127126e-26
9.399487977e-26
9.140510476e-26
8.889715439e-26
8.646313312e-26
8.410447244e-26
8.18080039e-26
7.958183401e-26
7.74280318e-26
7.53376697e-26
7.33071893e-26
7.133420825e-26
6.942072277e-26
6.756119971e-26
6.576049163e-26
6.401297425e-26
6.231455003e-26
6.066492886e-26
5.906474581e-26
5.750707053e-26
5.598770538e-26
5.451463343e-26
5.30880324e-26
5.170671053e-26
5.035841167e-26
4.90513339e-26
4.77822389e-26
4.654625241e-26
4.533772084e-26
4.416783526e-26
4.302588378e-26
4.191493265e-26
4.083293606e-26
3.977909099e-26
3.875188954e-26
3.775230234e-26
3.677815968e-26
3.583047797e-26
3.490635777e-26
3.400098776e-26
3.31201024e-26
3.226460079e-26
3.143370555e-26
3.062082337e-26
2.983094676e-26
2.906274267e-26
2.831490726e-26
2.758456686e-26
2.68755769e-26
2.618298422e-26
2.550557858e-26
2.485402438e-26
2.422007619e-26
2.360287851e-26
2.300191973e-26
2.241306432e-26
2.183825444e-26
2.12769981e-26
2.072925556e-26
2.020007174e-26
1.968973515e-26
1.919224871e-26
1.870514966e-26
1.823088919e-26
1.776745204e-26
1.731653526e-26
1.68767296e-26
1.644820396e-26
1.603359285e-26
1.562916938e-26
1.523483496e-26
1.484669809e-26
1.446919969e-26
1.410126704e-26
1.37462671e-26
1.340064458e-26
1.306577374e-26
1.273912009e-26
1.242239356e-26
1.211138936e-26
1.181148033e-26
1.151477384e-26
1.122525404e-26
1.094408301e-26
1.06680042e-26
1.039512814e-26
1.012943543e-26
9.869023646e-27
9.616360616e-27
9.373368142e-27
9.136985521e-27
8.904090544e-27
8.679784033e-27
8.46348595e-27
8.251267231e-27
8.044071378e-27
7.841573658e-27
7.644055694e-27
7.450853755e-27
7.263107575e-27
7.077376234e-27
6.897665138e-27
6.725359375e-27
6.554615743e-27
6.389163697e-27
6.226380258e-27
6.066569504e-27
5.913589303e-27
5.763278989e-27
5.616084638e-27
5.475184453e-27
5.336771022e-27
5.201835154e-27
5.068984601e-27
4.937881442e-27
4.812970197e-27
4.689964024e-27
4.571346396e-27
4.454203145e-27
4.339787686e-27
4.229993583e-27
4.122247182e-27
4.015086128e-27
3.911166946e-27
3.809290101e-27
3.707597905e-27
2.90512136e-27
2.038729878e-27
1.429035673e-27
1.029955721e-27
7.259074097e-28
5.298154015e-28
3.846208533e-28
2.655139029e-28
1.735530581e-28
1.12481792e-28
9.204927757e-29
6.657618358e-29
4.893113252e-29
3.021783404e-29
3.160899269e-29
2.928595927e-29
1.332577852e-29
1.155510912e-29
8.193701195e-30
7.122573481e-30
1.195555723e-29
5.634269438e-30
6.216510016e-31
2.8661828e-30
1.573318584e-30
1.929547119e-30
1.03109368e-30
1.161401202e-30
6.75341422e-31
3.981554879e-31
5.13407489e-32
3.310703165e-31
2.121389768e-31
1.052857071e-31
5.46531767e-31
4.692510637e-31
1.966639465e-31
1.515704283e-31
1.419697928e-31
1.189908697e-32
3.627766826e-31
1.672040437e-31
8.08240978e-31
1.698263287e-30
1.822442605e-30
9.904757828e-31
2.24500202e-32
1.371209853e-30
0
9.296682937e-32
7.944797644e-31
1.05667199e-30
3.433752816e-32
7.919386022e-32
6.807972226e-31
2.366462014e-30
1.960599748e-30
1.073137422e-30
1.090895042e-30
1.635345204e-32
7.242125003e-31
2.367801162e-31
1.988891036e-31
1.089643572e-31
1.787496655e-32
0
3.619561142e-32
6.250624841e-32
1.218254384e-32
8.928436981e-32
2.972308429e-33
6.658910457e-32
2.402586994e-31
3.399988104e-31
8.744609563e-31
3.844125496e-31
3.156221618e-31
4.850702906e-31
1.788752109e-31
2.47338575e-31
4.445993001e-32
4.943593785e-32
8.466002326e-32
5.403326644e-31
1.766079122e-31
3.340585423e-34
6.858831816e-33
6.787397611e-33
2.904273168e-32
6.114075596e-32
7.217730178e-32
2.716591183e-32
4.235514088e-33
0
4.99313667e-33
1.989646911e-34
0
1.396416042e-32
3.229137379e-33
5.300648981e-33
1.828460181e-34
1.198993103e-32
1.304318451e-32
8.90904433e-33
6.935185192e-33
1.557799945e-33
8.057843979e-33
1.410662815e-32
4.728022935e-33
2.442017527e-34
6.248044012e-33
3.306992062e-33
3.345046865e-34
3.516248008e-33
7.66781085e-33
7.626803378e-33
1.295492428e-32
6.297409873e-33
9.672704947e-33
1.260627581e-32
3.709143781e-33
1.041976168e-32
1.1580664e-32
1.920310996e-33
8.104452363e-33
1.415795077e-33
7.079991842e-33
1.133725635e-33
1.221125646e-32
6.422280902e-33
1.302810206e-33
3.652764231e-33
8.199906617e-34
2.926603414e-34
2.407244408e-32
1.737156964e-32
1.520407068e-32
1.720238103e-32
2.863460737e-32
5.786754959e-33
3.726217181e-33
2.287565372e-34
1.925584346e-32
1.875251398e-33
6.978594861e-33
1.188054336e-32
2.712677124e-33
8.139366901e-33
6.959571081e-33
4.4709982e-33
1.276429632e-32
1.034903416e-32
2.059828142e-32
1.220242349e-32
1.164386633e-32
1.829093468e-32
2.057990138e-33
2.670980289e-32
9.258347056e-33
1.575229559e-32
2.471354835e-32
8.222964864e-33
4.413121475e-33
9.702203491e-33
2.122515552e-32
5.346419499e-33
4.224450672e-33
6.858030721e-34
4.652499831e-33
3.702000386e-33
1.447401796e-33
1.261846025e-33
0
3.213150379e-33
5.165989825e-33
9.141361376e-33
1.90397763e-32
1.646525036e-32
7.529749407e-33
1.307620078e-32
1.826475001e-32
2.220051346e-32
1.04965251e-32
1.187642331e-32
1.281218406e-32
5.467856378e-33
1.626839562e-33
1.298207322e-32
1.288800691e-32
8.927199915e-34
6.03531462e-33
9.741999257e-33
7.170146609e-34
1.364880069e-32
1.193232196e-32
3.606901593e-33
2.697511075e-32
1.357211748e-32
1.857972498e-32
2.351189146e-34
0
6.069780083e-34
9.348915385e-33
2.749018164e-33
2.927245246e-34
7.385183217e-33
1.275798706e-32
1.416058717e-33
6.975028069e-34
1.395583709e-32
9.997338249e-34
3.625314254e-33
4.642885893e-34
1.257470173e-33
4.309733389e-33
2.12243177e-33
1.443839942e-33
1.28801203e-32
3.249548909e-33
1.550621889e-33
2.298412836e-33
9.875969962e-33
4.089209088e-33
7.265192353e-33
9.189505181e-33
1.242364139e-33
3.383917177e-34
9.593549817e-33
3.750527499e-33
3.139313556e-33
7.290737697e-33
1.031665385e-32
2.218230017e-34
4.276246852e-33
0
7.927312844e-33
1.576776286e-32
6.86662835e-33
4.89424569e-33
0
1.263785543e-33
2.050222271e-36
0
6.128434799e-33
0
0
0
1.59368899e-32
4.30742716e-33
0
)
;

boundaryField
{
    inlet
    {
        type            fixedValue;
        value           uniform 0;
    }
    outlet
    {
        type            zeroGradient;
    }
    wall
    {
        type            empty;
    }
}


// ************************************************************************* //
