/*--------------------------------*- C++ -*----------------------------------*\
  =========                 |
  \\      /  F ield         | OpenFOAM: The Open Source CFD Toolbox
   \\    /   O peration     | Website:  https://openfoam.org
    \\  /    A nd           | Version:  7
     \\/     M anipulation  |
\*---------------------------------------------------------------------------*/
FoamFile
{
    version     2.0;
    format      ascii;
    class       volScalarField;
    location    "0.000558243009";
    object      C3H5O_0;
}
// * * * * * * * * * * * * * * * * * * * * * * * * * * * * * * * * * * * * * //

dimensions      [0 0 0 0 0 0 0];

internalField   nonuniform List<scalar> 
1500
(
9.924654156e-24
1.80318959e-23
1.649588486e-23
1.170812449e-23
8.139299278e-24
6.245628399e-24
5.383457378e-24
5.026097676e-24
4.889471049e-24
4.841523165e-24
4.826434224e-24
4.822604425e-24
4.822350857e-24
4.823119487e-24
4.824088782e-24
4.824995009e-24
4.825759945e-24
4.82637431e-24
4.826855484e-24
4.827227823e-24
4.827512813e-24
4.827725495e-24
4.827875039e-24
4.827967362e-24
4.828008031e-24
4.828004271e-24
4.827965646e-24
4.827903579e-24
4.827830151e-24
4.827756732e-24
4.827692856e-24
4.827645563e-24
4.827619261e-24
4.827615969e-24
4.827635786e-24
4.827677411e-24
4.827738606e-24
4.827816554e-24
4.827908106e-24
4.828009939e-24
4.828118664e-24
4.828230939e-24
4.828343597e-24
4.828453789e-24
4.828559123e-24
4.828657783e-24
4.828748581e-24
4.828830965e-24
4.828904953e-24
4.828971026e-24
4.829029988e-24
4.829082812e-24
4.829130504e-24
4.829173976e-24
4.829213966e-24
4.829250979e-24
4.829285262e-24
4.829316811e-24
4.82934539e-24
4.829370571e-24
4.829391782e-24
4.82940835e-24
4.829419554e-24
4.829424669e-24
4.829423019e-24
4.829414013e-24
4.829397196e-24
4.829372285e-24
4.829339197e-24
4.829298078e-24
4.829249316e-24
4.829193547e-24
4.829131651e-24
4.829064731e-24
4.828994087e-24
4.828921181e-24
4.828847591e-24
4.828774968e-24
4.828704984e-24
4.828639281e-24
4.828579432e-24
4.828526891e-24
4.828482959e-24
4.828448755e-24
4.828425186e-24
4.828412933e-24
4.828412439e-24
4.828423908e-24
4.828447302e-24
4.828482352e-24
4.828528561e-24
4.828585223e-24
4.828651438e-24
4.828726131e-24
4.828808082e-24
4.82889595e-24
4.828988306e-24
4.829083672e-24
4.829180551e-24
4.829277472e-24
4.829373023e-24
4.829465892e-24
4.829554903e-24
4.829639044e-24
4.829717493e-24
4.82978964e-24
4.829855094e-24
4.829913682e-24
4.829965445e-24
4.830010616e-24
4.830049594e-24
4.830082916e-24
4.830111212e-24
4.830135174e-24
4.83015551e-24
4.830172906e-24
4.830188001e-24
4.83020135e-24
4.830213413e-24
4.830224542e-24
4.830234977e-24
4.830244852e-24
4.830254209e-24
4.830263011e-24
4.830271165e-24
4.830278539e-24
4.830284987e-24
4.830290359e-24
4.830294523e-24
4.830297368e-24
4.830298811e-24
4.830298794e-24
4.830297281e-24
4.83029425e-24
4.830289678e-24
4.830283536e-24
4.830275775e-24
4.830266317e-24
4.830255051e-24
4.830241829e-24
4.830226469e-24
4.83020876e-24
4.830188472e-24
4.830165368e-24
4.830139222e-24
4.830109829e-24
4.830077029e-24
4.830040713e-24
4.830000844e-24
4.829957462e-24
4.829910692e-24
4.829860747e-24
4.829807925e-24
4.829752603e-24
4.829695229e-24
4.829636313e-24
4.829576409e-24
4.829516104e-24
4.829456001e-24
4.829396709e-24
4.82933883e-24
4.829282948e-24
4.829229623e-24
4.82917939e-24
4.829132752e-24
4.829090185e-24
4.82905214e-24
4.829019043e-24
4.8289913e-24
4.828969298e-24
4.828953404e-24
4.828943964e-24
4.828941298e-24
4.828945686e-24
4.828957366e-24
4.828976513e-24
4.829003225e-24
4.82903751e-24
4.829079264e-24
4.829128257e-24
4.829184117e-24
4.829246315e-24
4.829314156e-24
4.82938677e-24
4.829463111e-24
4.829541962e-24
4.829621944e-24
4.82970154e-24
4.829779123e-24
4.829852997e-24
4.829921448e-24
4.829982799e-24
4.830035478e-24
4.83007808e-24
4.830109429e-24
4.830128628e-24
4.830135098e-24
4.830128596e-24
4.830109207e-24
4.830077319e-24
4.830033573e-24
4.829978802e-24
4.829913963e-24
4.829840071e-24
4.82975815e-24
4.82966921e-24
4.82957425e-24
4.829474301e-24
4.829370495e-24
4.829264143e-24
4.82915683e-24
4.829050466e-24
4.828947307e-24
4.828849893e-24
4.828760902e-24
4.828682904e-24
4.828618021e-24
4.828567522e-24
4.828531375e-24
4.828507828e-24
4.828493064e-24
4.828481019e-24
4.828463413e-24
4.828430052e-24
4.828369438e-24
4.828269673e-24
4.828119625e-24
4.827910268e-24
4.827636091e-24
4.827296393e-24
4.826896321e-24
4.826447447e-24
4.825967742e-24
4.825480797e-24
4.825014258e-24
4.82459746e-24
4.824258374e-24
4.82402008e-24
4.823897041e-24
4.823891616e-24
4.823991332e-24
4.824167716e-24
4.824378077e-24
4.824572914e-24
4.824714084e-24
4.824811727e-24
4.824985788e-24
4.825532966e-24
4.826889403e-24
4.829156945e-24
4.82986067e-24
4.830098276e-24
4.830347739e-24
4.830609659e-24
4.830884553e-24
4.831172989e-24
4.831475596e-24
4.831793059e-24
4.832126108e-24
4.832475513e-24
4.832842076e-24
4.83322664e-24
4.833630084e-24
4.83405333e-24
4.834497347e-24
4.834963148e-24
4.835451799e-24
4.835964417e-24
4.836502176e-24
4.837066308e-24
4.837658107e-24
4.838278933e-24
4.838930214e-24
4.839613451e-24
4.840330223e-24
4.841082189e-24
4.841871094e-24
4.842698775e-24
4.843567163e-24
4.844478293e-24
4.845434305e-24
4.846437455e-24
4.847490118e-24
4.848594798e-24
4.849754134e-24
4.850970907e-24
4.852248051e-24
4.853588662e-24
4.854996006e-24
4.856473529e-24
4.858024873e-24
4.859653882e-24
4.861364615e-24
4.863161364e-24
4.865048664e-24
4.867031311e-24
4.869114373e-24
4.871303215e-24
4.873603509e-24
4.876021261e-24
4.878562825e-24
4.881234929e-24
4.884044697e-24
4.886999674e-24
4.890107851e-24
4.893377697e-24
4.896818183e-24
4.900438817e-24
4.904249676e-24
4.908261443e-24
4.912485444e-24
4.916933685e-24
4.9216189e-24
4.926554588e-24
4.931755066e-24
4.937235519e-24
4.943012049e-24
4.949101732e-24
4.95552268e-24
4.962294101e-24
4.969436362e-24
4.976971063e-24
4.984921109e-24
4.993310784e-24
5.002165834e-24
5.011513553e-24
5.021382872e-24
5.031804449e-24
5.042810777e-24
5.054436279e-24
5.06671742e-24
5.079692821e-24
5.09340338e-24
5.107892393e-24
5.12320569e-24
5.139391764e-24
5.156501922e-24
5.174590428e-24
5.193714659e-24
5.213935269e-24
5.235316354e-24
5.257925627e-24
5.281834604e-24
5.307118786e-24
5.33385786e-24
5.3621359e-24
5.392041574e-24
5.423668366e-24
5.457114797e-24
5.49248466e-24
5.529887253e-24
5.569437632e-24
5.611256859e-24
5.655472268e-24
5.702217727e-24
5.751633917e-24
5.803868609e-24
5.859076959e-24
5.917421795e-24
5.979073922e-24
6.044212429e-24
6.113024999e-24
6.18570823e-24
6.262467956e-24
6.343519574e-24
6.429088378e-24
6.519409893e-24
6.614730217e-24
6.715306356e-24
6.821406578e-24
6.93331075e-24
7.051310691e-24
7.175710513e-24
7.306826977e-24
7.444989829e-24
7.590542151e-24
7.743840702e-24
7.905256253e-24
8.075173925e-24
8.253993515e-24
8.442129823e-24
8.640012964e-24
8.848088681e-24
9.066818643e-24
9.296680734e-24
9.538169337e-24
9.791795599e-24
1.005808769e-23
1.033759103e-23
1.063086856e-23
1.09385009e-23
1.126108658e-23
1.159924221e-23
1.195360265e-23
1.232482113e-23
1.271356941e-23
1.312053785e-23
1.354643552e-23
1.399199023e-23
1.44579486e-23
1.494507606e-23
1.545415685e-23
1.598599399e-23
1.654140924e-23
1.7121243e-23
1.772635423e-23
1.835762034e-23
1.901593702e-23
1.97022181e-23
2.041739535e-23
2.116241828e-23
2.193825394e-23
2.274588661e-23
2.358631762e-23
2.446056504e-23
2.536966338e-23
2.631466332e-23
2.72966314e-23
2.831664968e-23
2.937581549e-23
3.047524105e-23
3.161605321e-23
3.279939312e-23
3.402641599e-23
3.529829076e-23
3.661619988e-23
3.798133912e-23
3.939491733e-23
4.085815633e-23
4.237229079e-23
4.393856822e-23
4.555824891e-23
4.723260608e-23
4.896292602e-23
5.07505083e-23
5.259666614e-23
5.450272688e-23
5.647003248e-23
5.849994024e-23
6.059382367e-23
6.275307338e-23
6.497909832e-23
6.727332705e-23
6.963720927e-23
7.207221756e-23
7.457984935e-23
7.716162909e-23
7.981911074e-23
8.255388049e-23
8.536755981e-23
8.826180884e-23
9.123833006e-23
9.429887236e-23
9.744523555e-23
1.006792752e-22
1.040029079e-22
1.074181172e-22
1.109269597e-22
1.145315722e-22
1.182341785e-22
1.220370979e-22
1.259427535e-22
1.299536817e-22
1.340725417e-22
1.383021269e-22
1.426453754e-22
1.471053833e-22
1.516854172e-22
1.563889286e-22
1.612195686e-22
1.661812045e-22
1.712779364e-22
1.765141158e-22
1.818943649e-22
1.874235973e-22
1.9310704e-22
1.989502569e-22
2.049591736e-22
2.111401036e-22
2.174997765e-22
2.240453674e-22
2.307845288e-22
2.377254233e-22
2.448767594e-22
2.522478284e-22
2.598485443e-22
2.676894852e-22
2.757819379e-22
2.841379441e-22
2.927703503e-22
3.016928595e-22
3.109200868e-22
3.204676172e-22
3.303520674e-22
3.405911506e-22
3.512037453e-22
3.622099676e-22
3.736312479e-22
3.854904115e-22
3.978117643e-22
4.106211829e-22
4.239462098e-22
4.378161544e-22
4.52262199e-22
4.67317512e-22
4.830173664e-22
4.99399266e-22
5.165030785e-22
5.343711771e-22
5.530485899e-22
5.725831592e-22
5.930257107e-22
6.144302342e-22
6.368540659e-22
6.603581258e-22
6.850071026e-22
7.108696745e-22
7.380187705e-22
7.665318136e-22
7.964910007e-22
8.279835997e-22
8.611022632e-22
8.959453651e-22
9.32617362e-22
9.712291823e-22
1.011898648e-21
1.054750935e-21
1.099919072e-21
1.147544464e-21
1.197777547e-21
1.250778422e-21
1.306717609e-21
1.365776884e-21
1.428150269e-21
1.49404511e-21
1.56368327e-21
1.637302565e-21
1.715158433e-21
1.797525901e-21
1.884701903e-21
1.977008063e-21
2.074794036e-21
2.178441571e-21
2.288369466e-21
2.405039653e-21
2.528964721e-21
2.660717247e-21
2.800941423e-21
2.950367616e-21
3.109830632e-21
3.280292725e-21
3.462872616e-21
3.658882222e-21
3.86987317e-21
4.097695846e-21
4.344574425e-21
4.613202316e-21
4.906863712e-21
5.229588495e-21
5.586349771e-21
5.983315944e-21
6.428172512e-21
6.93053305e-21
7.502464278e-21
8.159157072e-21
8.919784192e-21
9.808596904e-21
1.085632727e-20
1.210198158e-20
1.359513421e-20
1.539886203e-20
1.759349823e-20
2.028143508e-20
2.359326867e-20
2.769566131e-20
3.280140188e-20
3.918227892e-20
4.718555346e-20
5.725503825e-20
6.995807211e-20
8.602003807e-20
1.063685355e-19
1.321899061e-19
1.650015691e-19
2.067445863e-19
2.599021148e-19
3.276509861e-19
4.140556731e-19
5.243164984e-19
6.650872459e-19
8.4488158e-19
1.074593096e-18
1.36816076e-18
1.743420387e-18
2.223194123e-18
2.836684475e-18
3.621257959e-18
4.624727239e-18
5.908271034e-18
7.550169934e-18
9.650586061e-18
1.23376781e-17
1.57754247e-17
2.017363319e-17
2.580074402e-17
3.300021128e-17
4.221145781e-17
5.399668179e-17
6.907514812e-17
8.836705346e-17
1.130496366e-16
1.446289508e-16
1.85031668e-16
2.367225028e-16
3.028544017e-16
3.874606375e-16
4.957004917e-16
6.341734684e-16
8.113211436e-16
1.037941077e-15
1.327844021e-15
1.698694346e-15
2.173084742e-15
2.779910443e-15
3.55612639e-15
4.548993962e-15
5.81895357e-15
7.443297282e-15
9.520864101e-15
1.217804238e-14
1.557644284e-14
1.992270675e-14
2.548104251e-14
3.258924881e-14
4.167919254e-14
5.330297816e-14
6.816638776e-14
8.71716082e-14
1.114718198e-13
1.425409326e-13
1.822626636e-13
2.330443074e-13
2.979620263e-13
3.809463694e-13
4.870191261e-13
6.225956766e-13
7.958708924e-13
1.0173116e-12
1.300284941e-12
1.661860005e-12
2.123830371e-12
2.714018261e-12
3.467937657e-12
4.430914984e-12
5.660793043e-12
7.231378494e-12
9.236837426e-12
1.179730021e-11
1.506600959e-11
1.923843988e-11
2.456393617e-11
3.136058129e-11
4.003420494e-11
5.110272466e-11
6.522737436e-11
8.32528699e-11
1.062592318e-10
1.356289022e-10
1.731340558e-10
2.21050744e-10
2.823089222e-10
3.606907322e-10
4.610940038e-10
5.898842557e-10
7.553671507e-10
9.684252755e-10
1.243379462e-09
1.599157331e-09
2.060882516e-09
2.662039837e-09
3.447427462e-09
4.477178872e-09
5.83222524e-09
7.62166725e-09
9.992620429e-09
1.314316007e-08
1.733896523e-08
2.293404682e-08
3.039536863e-08
4.032995078e-08
5.35107162e-08
7.089331388e-08
9.360965175e-08
1.229145316e-07
1.600504625e-07
2.059868428e-07
2.60994607e-07
3.240208353e-07
3.921971382e-07
4.599881935e-07
5.204376585e-07
5.651571067e-07
5.875189843e-07
5.850925808e-07
5.601990261e-07
5.192543496e-07
4.690169143e-07
4.146718822e-07
3.592807613e-07
3.058826219e-07
2.56217622e-07
2.121175595e-07
1.749160013e-07
1.450193593e-07
1.216006256e-07
1.04391522e-07
9.182127852e-08
8.270239599e-08
7.589686809e-08
7.056781205e-08
6.583615927e-08
6.10681305e-08
5.586347514e-08
4.997283428e-08
4.340511271e-08
3.641645841e-08
2.943016194e-08
2.291162878e-08
1.723339712e-08
1.257656277e-08
8.987010581e-09
6.314253394e-09
4.404540278e-09
3.061848522e-09
2.12980645e-09
1.486967632e-09
1.044482625e-09
7.375872375e-10
5.23067479e-10
3.737578905e-10
2.692057918e-10
1.954647515e-10
1.430685555e-10
1.055579744e-10
7.849553149e-11
5.881517617e-11
4.438910883e-11
3.387441992e-11
2.602942781e-11
2.00879525e-11
1.560617474e-11
1.219972878e-11
9.591939333e-12
7.582184377e-12
6.023716508e-12
4.80879749e-12
3.855793514e-12
3.104796258e-12
2.510143524e-12
2.037138867e-12
1.659263661e-12
1.356138115e-12
1.112018399e-12
9.146813918e-13
7.54591967e-13
6.242776891e-13
5.178567155e-13
4.306795751e-13
3.590559749e-13
3.000454583e-13
2.512962476e-13
2.109206222e-13
1.773981259e-13
1.495000714e-13
1.262304127e-13
1.067792533e-13
9.048614855e-14
7.681103224e-14
6.531110068e-14
5.562237037e-14
4.744491554e-14
4.053101378e-14
3.467559764e-14
2.970854106e-14
2.548841043e-14
2.189738831e-14
1.883713912e-14
1.622543344e-14
1.399338507e-14
1.208318441e-14
1.044623472e-14
9.041616419e-15
7.834819083e-15
6.796692212e-15
5.902575494e-15
5.131576409e-15
4.465969151e-15
3.890693599e-15
3.392936977e-15
2.961783976e-15
2.58792365e-15
2.263403509e-15
1.981422874e-15
1.736158977e-15
1.522620408e-15
1.336523428e-15
1.174187438e-15
1.032446517e-15
9.085744689e-16
8.002212184e-16
7.053587835e-16
6.222353184e-16
5.493359762e-16
4.8534954e-16
4.29139939e-16
3.797219062e-16
3.362401534e-16
2.979515348e-16
2.642097539e-16
2.344522377e-16
2.081888594e-16
1.849922381e-16
1.644893887e-16
1.463545251e-16
1.303028524e-16
1.160852072e-16
1.034834246e-16
9.230633172e-17
8.238627773e-17
7.357612736e-17
6.574665305e-17
5.878427114e-17
5.258907495e-17
4.707312447e-17
4.215895787e-17
3.77782951e-17
3.387090787e-17
3.038363384e-17
2.726951597e-17
2.448705063e-17
2.199953015e-17
1.977446755e-17
1.778309281e-17
1.59999115e-17
1.440231775e-17
1.297025454e-17
1.168591555e-17
1.053348304e-17
9.498897443e-18
8.569654579e-18
7.734627173e-18
6.983907552e-18
6.308668986e-18
5.701043369e-18
5.154013243e-18
4.661316425e-18
4.217361715e-18
3.817154358e-18
3.456230078e-18
3.130596679e-18
2.836682305e-18
2.571289573e-18
2.331554892e-18
2.114912366e-18
1.91906173e-18
1.741939872e-18
1.581695515e-18
1.436666696e-18
1.305360724e-18
1.186436338e-18
1.078687811e-18
9.810307779e-19
8.924896022e-19
8.121860994e-19
7.393294736e-19
6.732073262e-19
6.131776248e-19
5.586615189e-19
5.091369195e-19
4.641327475e-19
4.232237878e-19
3.860260793e-19
3.521927838e-19
3.21410481e-19
2.933958464e-19
2.67892672e-19
2.44669187e-19
2.235156555e-19
2.042422171e-19
1.86676945e-19
1.706641008e-19
1.560625634e-19
1.427444163e-19
1.305936744e-19
1.19505138e-19
1.093833607e-19
1.001417182e-19
9.170156895e-20
8.399149711e-20
7.694662981e-20
7.050802021e-20
6.462209016e-20
5.924012819e-20
5.431783441e-20
4.981490963e-20
4.569468445e-20
4.192378253e-20
3.847181754e-20
3.531111687e-20
3.241647313e-20
2.97649187e-20
2.733552083e-20
2.51091969e-20
2.30685465e-20
2.119769859e-20
1.948217388e-20
1.790875959e-20
1.64653958e-20
1.5141072e-20
1.39257333e-20
1.281019548e-20
1.178606772e-20
1.084568213e-20
9.982029829e-21
9.188703132e-21
8.459842442e-21
7.790088207e-21
7.174537101e-21
6.608702327e-21
6.088477537e-21
5.610103289e-21
5.170137431e-21
4.765427462e-21
4.393085863e-21
4.050466839e-21
3.735145712e-21
3.44490024e-21
3.177693132e-21
2.931656427e-21
2.705076931e-21
2.496383237e-21
2.304133507e-21
2.127004766e-21
1.963782821e-21
1.81335298e-21
1.674691872e-21
1.546859734e-21
1.428993485e-21
1.320300133e-21
1.220051292e-21
1.127577574e-21
1.042263647e-21
9.635439832e-22
8.908986159e-22
8.238493564e-22
7.619565102e-22
7.048155694e-22
6.520543769e-22
6.033305743e-22
5.583289835e-22
5.167596736e-22
4.783555865e-22
4.428709903e-22
4.100794944e-22
3.797726609e-22
3.517584829e-22
3.258600627e-22
3.01914413e-22
2.797713609e-22
2.592924587e-22
2.403501775e-22
2.228268437e-22
2.066140428e-22
1.916117856e-22
1.777278453e-22
1.648771543e-22
1.529812155e-22
1.41967622e-22
1.317695604e-22
1.223253673e-22
1.135781399e-22
1.054753553e-22
9.79685288e-23
9.101289721e-23
8.456709784e-23
7.859291367e-23
7.305504429e-23
6.79208895e-23
6.316041005e-23
5.874576641e-23
5.465122743e-23
5.085302067e-23
4.732921609e-23
4.405949656e-23
4.102503063e-23
3.820845977e-23
3.559376855e-23
3.316609288e-23
3.09117227e-23
2.8817935e-23
2.687298854e-23
2.506599856e-23
2.338688e-23
2.18263021e-23
2.037569958e-23
1.902702712e-23
1.777290984e-23
1.660650472e-23
1.552148596e-23
1.451198607e-23
1.357253522e-23
1.269812044e-23
1.188407273e-23
1.112606649e-23
1.04201074e-23
9.762448428e-24
9.149659882e-24
8.578569155e-24
8.046214038e-24
7.549847492e-24
7.086925594e-24
6.655080469e-24
6.252118003e-24
5.876035199e-24
5.524931063e-24
5.19706827e-24
4.890804874e-24
4.604646523e-24
4.337198633e-24
4.087155118e-24
3.853324933e-24
3.634600726e-24
3.42990477e-24
3.23830678e-24
3.058903954e-24
2.890862444e-24
2.733405656e-24
2.585818666e-24
2.447420667e-24
2.31761197e-24
2.195806125e-24
2.081486668e-24
1.974130979e-24
1.873284184e-24
1.778492203e-24
1.689366563e-24
1.605529247e-24
1.526643115e-24
1.452400044e-24
1.382474923e-24
1.316599692e-24
1.254491014e-24
1.195914764e-24
1.140664621e-24
1.088520357e-24
1.039276853e-24
9.927562929e-25
9.487742958e-25
9.071889176e-25
8.678447016e-25
8.30597574e-25
7.953223803e-25
7.619039613e-25
7.30218289e-25
7.001709743e-25
6.716555947e-25
6.44569872e-25
6.18842784e-25
5.943908682e-25
5.711548111e-25
5.490515468e-25
5.280171031e-25
5.079820658e-25
4.888910494e-25
4.706843625e-25
4.533264358e-25
4.367692101e-25
4.20969927e-25
4.058774812e-25
3.91459497e-25
3.776798477e-25
3.645098918e-25
3.519069912e-25
3.398322344e-25
3.282684834e-25
3.171809953e-25
3.065667165e-25
2.963939026e-25
2.866315773e-25
2.772557273e-25
2.682505961e-25
2.59592483e-25
2.512614691e-25
2.432470299e-25
2.355413635e-25
2.281293527e-25
2.210022281e-25
2.141395184e-25
2.075438382e-25
2.011918008e-25
1.95063689e-25
1.89155587e-25
1.834567941e-25
1.779562617e-25
1.726492121e-25
1.675304816e-25
1.625831258e-25
1.577995938e-25
1.531870378e-25
1.487266107e-25
1.44417264e-25
1.402554689e-25
1.362204311e-25
1.323200275e-25
1.285436718e-25
1.248925358e-25
1.213535947e-25
1.179297788e-25
1.146141387e-25
1.113962704e-25
1.082805621e-25
1.052589883e-25
1.023272642e-25
9.949054313e-26
9.674201768e-26
9.407431851e-26
9.148905749e-26
8.897878843e-26
8.654773962e-26
8.418494819e-26
8.188875821e-26
7.966579088e-26
7.751109457e-26
7.541457037e-26
7.338203085e-26
7.140619753e-26
6.949453273e-26
6.763656589e-26
6.583826702e-26
6.408721176e-26
6.238966957e-26
6.074447164e-26
5.914267715e-26
5.758591574e-26
5.606779431e-26
5.459098459e-26
5.315822859e-26
5.17727224e-26
5.042034663e-26
4.910440548e-26
4.783205892e-26
4.659262701e-26
4.538917291e-26
4.421564593e-26
4.307432551e-26
4.195826379e-26
4.087045121e-26
3.981193213e-26
3.878628399e-26
3.778683607e-26
3.681156694e-26
3.585990684e-26
3.493471398e-26
3.403740463e-26
3.316426798e-26
3.231340596e-26
3.148317972e-26
3.066724629e-26
2.98722429e-26
2.909782431e-26
2.834657527e-26
2.761655869e-26
2.690560127e-26
2.620987972e-26
2.553289606e-26
2.487915925e-26
2.424270535e-26
2.362734004e-26
2.302266181e-26
2.243311961e-26
2.18608316e-26
2.130180073e-26
2.075827005e-26
2.023023295e-26
1.97147179e-26
1.921303733e-26
1.872643848e-26
1.825113241e-26
1.778734321e-26
1.733818115e-26
1.689896379e-26
1.647071462e-26
1.60549562e-26
1.56502768e-26
1.525637205e-26
1.487093687e-26
1.449453012e-26
1.412983222e-26
1.37716885e-26
1.342469423e-26
1.308711127e-26
1.275877258e-26
1.243787867e-26
1.21237735e-26
1.182275863e-26
1.152846026e-26
1.123733184e-26
1.095437081e-26
1.067770088e-26
1.040400896e-26
1.013648902e-26
9.877369378e-27
9.626713095e-27
9.380398278e-27
9.141370811e-27
8.909823233e-27
8.689200813e-27
8.471144569e-27
8.260385026e-27
8.053982867e-27
7.852466597e-27
7.655279612e-27
7.461009359e-27
7.273140034e-27
7.08793878e-27
6.909360092e-27
6.733212868e-27
6.560549408e-27
6.393370401e-27
6.230622661e-27
6.070139052e-27
5.915283961e-27
5.767109345e-27
5.624156818e-27
5.4839859e-27
5.344924681e-27
5.210192733e-27
5.077650617e-27
4.947312919e-27
4.820093191e-27
4.694397684e-27
4.575043159e-27
4.458480472e-27
4.34555965e-27
4.23642759e-27
4.129850956e-27
4.021528596e-27
3.916926349e-27
3.812799325e-27
3.712562583e-27
2.906843469e-27
2.056207084e-27
1.43922903e-27
1.041430985e-27
7.238795164e-28
5.344275975e-28
3.854744806e-28
2.578081491e-28
1.688163186e-28
1.151493771e-28
8.564867859e-29
6.36380879e-29
4.825928421e-29
3.59233543e-29
2.776119622e-29
2.755476157e-29
1.255067097e-29
9.190563138e-30
8.983214511e-30
5.689169078e-30
1.135680417e-29
6.099167561e-30
6.392208142e-31
1.931400338e-30
3.097230338e-31
1.681976276e-30
7.426016012e-31
1.176468608e-30
6.412721133e-31
4.971097576e-31
2.542068164e-32
3.522731209e-31
1.694515165e-31
1.308957113e-31
5.24656681e-31
4.905073467e-31
2.276871758e-31
1.03371093e-31
5.469605608e-32
6.288594417e-33
2.462900606e-31
2.456428215e-31
1.004288963e-30
1.874296907e-30
1.828918373e-30
8.706364908e-31
9.853165586e-32
1.09752499e-30
1.237876741e-31
6.574642008e-31
5.448807923e-31
9.451250547e-31
3.847661397e-32
3.646841879e-33
1.083404642e-30
2.718503907e-30
2.127367e-30
9.94798158e-31
1.084242468e-30
1.389398782e-31
7.630168519e-31
3.547820688e-32
1.970342622e-31
3.144894899e-31
1.141243908e-31
0
6.760386133e-32
6.782017629e-32
2.888868558e-32
6.787970578e-32
3.015443654e-33
8.683511704e-32
2.629264417e-31
4.297320695e-31
1.029605078e-30
3.835486874e-31
1.466315488e-31
4.171444401e-31
1.858401639e-31
3.423335732e-31
7.769440958e-32
1.90178418e-34
4.418626861e-33
5.514762338e-31
1.792708719e-31
1.228274331e-32
0
4.150681948e-34
0
3.559166267e-32
7.209890402e-32
2.951934746e-32
1.846629587e-32
7.22770262e-33
5.638895193e-33
3.095615809e-34
1.475588351e-33
2.457518762e-32
2.25817333e-33
4.913941914e-33
4.680746035e-34
3.846042167e-33
1.239352951e-32
4.072392115e-33
2.546982863e-33
2.39502393e-33
1.226740938e-32
1.946638725e-32
7.372059596e-33
1.032548345e-34
3.216068003e-33
3.131186992e-33
9.730763118e-34
3.226895731e-33
6.57542902e-33
7.014325981e-33
1.140130134e-32
6.427894609e-33
9.807123291e-33
1.170699709e-32
1.987587954e-33
1.113558357e-32
9.118277391e-33
4.435625649e-34
6.778278982e-33
1.205764562e-34
7.551298864e-33
1.631017729e-33
1.322090513e-32
5.970304704e-33
1.081548771e-33
3.991357453e-33
9.230292171e-34
3.277670901e-34
2.55946096e-32
1.7759899e-32
1.8060724e-32
1.754937975e-32
2.979919226e-32
4.920087176e-33
5.517391643e-33
5.641000926e-34
1.714841197e-32
1.209637261e-33
6.43347144e-33
1.248745114e-32
5.015197299e-33
9.186556028e-33
3.041318533e-33
2.876047241e-33
8.518347774e-33
1.000140387e-32
1.859865343e-32
1.933663175e-32
1.196229228e-32
2.250226746e-32
7.361714342e-33
2.979242767e-32
1.03930458e-32
1.28981558e-32
2.004667874e-32
1.830906483e-33
5.626679209e-33
7.410918412e-33
1.10198141e-32
7.301791698e-33
1.925505975e-34
2.231570788e-33
4.519898099e-33
1.494303831e-32
3.397337854e-33
8.423400657e-33
0
4.826768041e-33
1.758185889e-33
1.108396122e-32
1.393084616e-32
1.811356452e-32
5.521922854e-33
8.584198737e-33
8.360723909e-33
1.505639566e-32
9.053725991e-33
5.524905911e-33
7.501035208e-33
3.625721508e-33
1.940699391e-33
1.305032527e-32
1.045756162e-32
0
3.709424289e-33
1.058551116e-32
4.601124777e-34
7.815316007e-33
4.778914611e-33
6.151520333e-33
2.076672137e-32
1.392605704e-32
1.796587243e-32
6.036174129e-33
1.248409074e-34
7.030057712e-33
1.167923791e-32
7.511171569e-33
4.484187054e-33
1.149648253e-32
1.222086992e-32
4.322107544e-33
2.758028808e-33
1.404165422e-32
2.589342316e-33
6.224755932e-33
0
2.504545251e-33
6.332913401e-33
3.874449378e-33
2.15323355e-33
1.290774134e-32
5.650947743e-33
1.600467769e-33
4.713270131e-33
1.060597797e-32
5.694964825e-33
8.816428145e-33
1.069772902e-32
6.508844917e-34
4.803151218e-34
9.7889488e-33
3.991159027e-33
3.402095202e-33
7.256641758e-33
1.035000382e-32
8.584880522e-35
3.86862802e-33
0
7.166467094e-33
1.861727643e-32
6.461633391e-33
5.356257245e-33
0
3.239403605e-33
3.359621062e-35
1.688284205e-34
1.023691754e-32
0
0
1.728765891e-33
2.197992982e-32
4.262572875e-33
0
)
;

boundaryField
{
    inlet
    {
        type            fixedValue;
        value           uniform 0;
    }
    outlet
    {
        type            zeroGradient;
    }
    wall
    {
        type            empty;
    }
}


// ************************************************************************* //
