/*--------------------------------*- C++ -*----------------------------------*\
  =========                 |
  \\      /  F ield         | OpenFOAM: The Open Source CFD Toolbox
   \\    /   O peration     | Website:  https://openfoam.org
    \\  /    A nd           | Version:  7
     \\/     M anipulation  |
\*---------------------------------------------------------------------------*/
FoamFile
{
    version     2.0;
    format      ascii;
    class       volScalarField;
    location    "0.000558243009";
    object      C3H6;
}
// * * * * * * * * * * * * * * * * * * * * * * * * * * * * * * * * * * * * * //

dimensions      [0 0 0 0 0 0 0];

internalField   nonuniform List<scalar> 
1500
(
1.94034833e-13
7.586169541e-13
1.564946864e-12
2.347580889e-12
2.929551916e-12
3.283770084e-12
3.467142286e-12
3.549837233e-12
3.582876241e-12
3.594726816e-12
3.59858531e-12
3.599736462e-12
3.600053672e-12
3.600134958e-12
3.600154442e-12
3.600158833e-12
3.600159767e-12
3.600159956e-12
3.600159992e-12
3.600159998e-12
3.60016e-12
3.60016e-12
3.60016e-12
3.60016e-12
3.60016e-12
3.60016e-12
3.60016e-12
3.60016e-12
3.60016e-12
3.60016e-12
3.60016e-12
3.60016e-12
3.60016e-12
3.60016e-12
3.60016e-12
3.60016e-12
3.60016e-12
3.60016e-12
3.60016e-12
3.60016e-12
3.60016e-12
3.60016e-12
3.60016e-12
3.60016e-12
3.60016e-12
3.60016e-12
3.60016e-12
3.60016e-12
3.60016e-12
3.60016e-12
3.60016e-12
3.60016e-12
3.60016e-12
3.60016e-12
3.60016e-12
3.60016e-12
3.60016e-12
3.60016e-12
3.60016e-12
3.60016e-12
3.60016e-12
3.60016e-12
3.60016e-12
3.60016e-12
3.60016e-12
3.60016e-12
3.60016e-12
3.60016e-12
3.60016e-12
3.60016e-12
3.60016e-12
3.60016e-12
3.60016e-12
3.60016e-12
3.60016e-12
3.60016e-12
3.60016e-12
3.60016e-12
3.60016e-12
3.60016e-12
3.60016e-12
3.60016e-12
3.60016e-12
3.60016e-12
3.60016e-12
3.60016e-12
3.60016e-12
3.60016e-12
3.60016e-12
3.60016e-12
3.60016e-12
3.60016e-12
3.60016e-12
3.60016e-12
3.60016e-12
3.60016e-12
3.60016e-12
3.60016e-12
3.60016e-12
3.60016e-12
3.60016e-12
3.60016e-12
3.60016e-12
3.60016e-12
3.60016e-12
3.60016e-12
3.60016e-12
3.60016e-12
3.60016e-12
3.60016e-12
3.60016e-12
3.60016e-12
3.60016e-12
3.60016e-12
3.60016e-12
3.60016e-12
3.60016e-12
3.60016e-12
3.60016e-12
3.60016e-12
3.60016e-12
3.60016e-12
3.60016e-12
3.60016e-12
3.60016e-12
3.60016e-12
3.60016e-12
3.60016e-12
3.60016e-12
3.60016e-12
3.60016e-12
3.60016e-12
3.60016e-12
3.60016e-12
3.60016e-12
3.60016e-12
3.60016e-12
3.60016e-12
3.60016e-12
3.60016e-12
3.60016e-12
3.60016e-12
3.60016e-12
3.60016e-12
3.60016e-12
3.60016e-12
3.60016e-12
3.60016e-12
3.60016e-12
3.60016e-12
3.60016e-12
3.60016e-12
3.60016e-12
3.60016e-12
3.60016e-12
3.60016e-12
3.60016e-12
3.60016e-12
3.60016e-12
3.60016e-12
3.60016e-12
3.60016e-12
3.60016e-12
3.60016e-12
3.60016e-12
3.60016e-12
3.60016e-12
3.60016e-12
3.60016e-12
3.60016e-12
3.60016e-12
3.60016e-12
3.60016e-12
3.60016e-12
3.60016e-12
3.60016e-12
3.60016e-12
3.60016e-12
3.60016e-12
3.60016e-12
3.60016e-12
3.60016e-12
3.60016e-12
3.60016e-12
3.60016e-12
3.60016e-12
3.60016e-12
3.60016e-12
3.60016e-12
3.60016e-12
3.60016e-12
3.60016e-12
3.60016e-12
3.60016e-12
3.60016e-12
3.60016e-12
3.60016e-12
3.60016e-12
3.60016e-12
3.60016e-12
3.60016e-12
3.60016e-12
3.60016e-12
3.60016e-12
3.60016e-12
3.60016e-12
3.60016e-12
3.60016e-12
3.60016e-12
3.60016e-12
3.60016e-12
3.60016e-12
3.60016e-12
3.60016e-12
3.60016e-12
3.60016e-12
3.60016e-12
3.60016e-12
3.60016e-12
3.60016e-12
3.60016e-12
3.60016e-12
3.60016e-12
3.60016e-12
3.60016e-12
3.60016e-12
3.60016e-12
3.60016e-12
3.60016e-12
3.60016e-12
3.60016e-12
3.60016e-12
3.60016e-12
3.60016e-12
3.60016e-12
3.60016e-12
3.600160002e-12
3.600160008e-12
3.600160033e-12
3.600160124e-12
3.600160445e-12
3.600161513e-12
3.600164829e-12
3.600174434e-12
3.600200248e-12
3.600264199e-12
3.600408724e-12
3.600701347e-12
3.601212981e-12
3.601913403e-12
3.602156639e-12
3.6022286e-12
3.602303336e-12
3.602381003e-12
3.602461716e-12
3.602545589e-12
3.602632745e-12
3.60272332e-12
3.602817461e-12
3.602915326e-12
3.60301708e-12
3.603122896e-12
3.603232956e-12
3.60334745e-12
3.603466581e-12
3.603590557e-12
3.603719602e-12
3.603853949e-12
3.603993843e-12
3.604139543e-12
3.604291323e-12
3.604449469e-12
3.604614285e-12
3.604786091e-12
3.604965222e-12
3.605152035e-12
3.605346905e-12
3.605550227e-12
3.605762419e-12
3.605983923e-12
3.606215204e-12
3.606456754e-12
3.606709094e-12
3.606972773e-12
3.60724837e-12
3.607536501e-12
3.607837813e-12
3.608152992e-12
3.608482763e-12
3.608827893e-12
3.609189193e-12
3.60956752e-12
3.609963781e-12
3.610378936e-12
3.610813999e-12
3.611270043e-12
3.611748203e-12
3.612249681e-12
3.612775746e-12
3.613327741e-12
3.613907087e-12
3.614515287e-12
3.615153929e-12
3.615824692e-12
3.616529353e-12
3.617269788e-12
3.618047984e-12
3.618866036e-12
3.619726161e-12
3.620630701e-12
3.621582129e-12
3.622583057e-12
3.623636243e-12
3.624744601e-12
3.625911204e-12
3.627139297e-12
3.6284323e-12
3.629793826e-12
3.631227679e-12
3.632737875e-12
3.634328641e-12
3.636004437e-12
3.637769955e-12
3.639630139e-12
3.641590195e-12
3.643655598e-12
3.645832112e-12
3.648125797e-12
3.650543023e-12
3.653090489e-12
3.655775229e-12
3.658604634e-12
3.661586461e-12
3.664728853e-12
3.668040352e-12
3.671529917e-12
3.675206939e-12
3.679081259e-12
3.683163185e-12
3.687463511e-12
3.691993535e-12
3.696765074e-12
3.701790489e-12
3.7070827e-12
3.712655205e-12
3.718522105e-12
3.724698117e-12
3.731198602e-12
3.738039579e-12
3.745237749e-12
3.752810517e-12
3.760776012e-12
3.769153107e-12
3.777961441e-12
3.787221444e-12
3.796954353e-12
3.807182236e-12
3.817928016e-12
3.829215485e-12
3.841069334e-12
3.853515167e-12
3.866579524e-12
3.880289903e-12
3.894674776e-12
3.909763612e-12
3.925586895e-12
3.942176142e-12
3.959563919e-12
3.977783865e-12
3.996870699e-12
4.016860244e-12
4.037789436e-12
4.059696342e-12
4.082620171e-12
4.106601288e-12
4.13168122e-12
4.157902672e-12
4.185309532e-12
4.213946877e-12
4.243860983e-12
4.275099325e-12
4.307710582e-12
4.34174464e-12
4.377252588e-12
4.414286718e-12
4.452900524e-12
4.493148689e-12
4.535087089e-12
4.578772772e-12
4.624263956e-12
4.671620013e-12
4.720901452e-12
4.772169906e-12
4.825488108e-12
4.880919878e-12
4.93853009e-12
4.998384655e-12
5.060550488e-12
5.125095485e-12
5.192088483e-12
5.261599236e-12
5.333698371e-12
5.408457357e-12
5.485948462e-12
5.566244711e-12
5.649419845e-12
5.735548274e-12
5.824705033e-12
5.916965729e-12
6.012406494e-12
6.111103932e-12
6.213135065e-12
6.318577281e-12
6.427508277e-12
6.540006003e-12
6.656148601e-12
6.776014353e-12
6.899681616e-12
7.027228765e-12
7.158734136e-12
7.29427596e-12
7.43393231e-12
7.577781036e-12
7.72589971e-12
7.878365568e-12
8.035255448e-12
8.196645739e-12
8.362612327e-12
8.533230536e-12
8.708575084e-12
8.888720031e-12
9.073738732e-12
9.263703796e-12
9.458687043e-12
9.658759471e-12
9.863991216e-12
1.007445153e-11
1.029020876e-11
1.051133029e-11
1.07378826e-11
1.096993117e-11
1.120754055e-11
1.145077429e-11
1.169969503e-11
1.195436442e-11
1.221484323e-11
1.248119131e-11
1.275346767e-11
1.303173049e-11
1.33160372e-11
1.360644452e-11
1.390300856e-11
1.420578485e-11
1.451482848e-11
1.483019414e-11
1.515193631e-11
1.54801093e-11
1.581476742e-11
1.615596512e-11
1.650375715e-11
1.685819871e-11
1.721934562e-11
1.758725456e-11
1.796198321e-11
1.834359052e-11
1.87321369e-11
1.912768452e-11
1.95302975e-11
1.994004225e-11
2.035698772e-11
2.07812057e-11
2.121277119e-11
2.165176269e-11
2.209826255e-11
2.255235737e-11
2.301413839e-11
2.348370183e-11
2.396114941e-11
2.444658868e-11
2.494013356e-11
2.544190478e-11
2.595203037e-11
2.647064619e-11
2.699789642e-11
2.753393416e-11
2.807892198e-11
2.863303249e-11
2.919644898e-11
2.976936601e-11
3.035199011e-11
3.094454043e-11
3.15472494e-11
3.216036352e-11
3.278414401e-11
3.341886763e-11
3.406482747e-11
3.472233369e-11
3.539171442e-11
3.607331657e-11
3.676750675e-11
3.747467212e-11
3.819522138e-11
3.892958566e-11
3.96782196e-11
4.044160224e-11
4.122023818e-11
4.201465857e-11
4.282542223e-11
4.365311684e-11
4.449836e-11
4.536180055e-11
4.624411978e-11
4.714603271e-11
4.806828932e-11
4.901167621e-11
4.997701778e-11
5.096517745e-11
5.197705939e-11
5.301360997e-11
5.407581944e-11
5.516472352e-11
5.62814051e-11
5.742699595e-11
5.860267849e-11
5.980968755e-11
6.104931224e-11
6.23228979e-11
6.363184807e-11
6.497762639e-11
6.636175907e-11
6.778583705e-11
6.925151843e-11
7.076053082e-11
7.231467416e-11
7.391582343e-11
7.556593114e-11
7.726703015e-11
7.902123692e-11
8.083075471e-11
8.269787708e-11
8.462499142e-11
8.661458279e-11
8.866923797e-11
9.07916498e-11
9.298462176e-11
9.525107296e-11
9.759404346e-11
1.000167001e-10
1.025223427e-10
1.051144109e-10
1.077964918e-10
1.105723282e-10
1.134458273e-10
1.164210715e-10
1.195023292e-10
1.226940677e-10
1.260009676e-10
1.294279385e-10
1.329801378e-10
1.366629914e-10
1.404822177e-10
1.444438552e-10
1.485542939e-10
1.528203124e-10
1.572491204e-10
1.618484079e-10
1.666264031e-10
1.7159194e-10
1.76754537e-10
1.821244897e-10
1.877129795e-10
1.935322019e-10
1.995955167e-10
2.059176264e-10
2.125147853e-10
2.194050485e-10
2.266085639e-10
2.341479204e-10
2.420485579e-10
2.503392549e-10
2.590527049e-10
2.682262009e-10
2.779024474e-10
2.881305229e-10
2.989670238e-10
3.104774211e-10
3.227376722e-10
3.35836135e-10
3.498758412e-10
3.649771979e-10
3.812811958e-10
3.989532233e-10
4.18187597e-10
4.392129473e-10
4.622986177e-10
4.877622717e-10
5.15978933e-10
5.473917312e-10
5.825246744e-10
6.219978305e-10
6.665453728e-10
7.170370295e-10
7.745035795e-10
8.401671578e-10
9.154772762e-10
1.002153639e-09
1.102237032e-09
1.218149807e-09
1.352767771e-09
1.509505624e-09
1.692418502e-09
1.90632265e-09
2.156938833e-09
2.451062745e-09
2.796767519e-09
3.203644343e-09
3.683088355e-09
4.248638316e-09
4.916380148e-09
5.705426314e-09
6.638485257e-09
7.742537748e-09
9.049640164e-09
1.05978784e-08
1.243250056e-08
1.460726175e-08
1.718602054e-08
2.024463378e-08
2.387320535e-08
2.817875433e-08
3.328838024e-08
3.935301712e-08
4.655188493e-08
5.509776622e-08
6.524325934e-08
7.728818618e-08
9.158836445e-08
1.085659912e-07
1.287219278e-07
1.526502269e-07
1.810552999e-07
2.147721914e-07
2.547905058e-07
3.022826188e-07
3.586369102e-07
4.25496872e-07
5.048070737e-07
5.988671166e-07
7.103948715e-07
8.426004736e-07
9.992727408e-07
1.184879891e-06
1.404686648e-06
1.664890037e-06
1.972776394e-06
2.336902293e-06
2.767302244e-06
3.275726135e-06
3.875909379e-06
4.583878635e-06
5.418295697e-06
6.400841703e-06
7.556643073e-06
8.914739601e-06
1.050859377e-05
1.237663861e-05
1.456285938e-05
1.711740179e-05
2.009719673e-05
2.356658855e-05
2.759795089e-05
3.227227107e-05
3.767968227e-05
4.391992053e-05
5.110268402e-05
5.934787266e-05
6.878568921e-05
7.955658741e-05
9.181105889e-05
0.0001057092578
0.0001214204702
0.000139122443
0.0001590005957
0.0001812471417
0.0002060601547
0.0002336426134
0.0002642014621
0.0002979467235
0.0003350906924
0.0003758472502
0.000420431297
0.000469058343
0.0005219442416
0.0005793050726
0.0006413571978
0.000708317603
0.0007804049047
0.0008578204172
0.0009408529276
0.001029606875
0.001124699569
0.001226321102
0.001334724252
0.00144808398
0.001567516961
0.001692757944
0.001823080404
0.001956857626
0.002091020008
0.002221120949
0.00234275708
0.002452704263
0.002548614077
0.00262819453
0.002689980468
0.002728421988
0.002740785399
0.002722666893
0.002669023671
0.002577378775
0.002445576908
0.002275076267
0.00206942141
0.001840021906
0.001596412865
0.001350873518
0.001115077234
0.0008986446921
0.0007081767611
0.0005460356033
0.0004142005003
0.0003090742396
0.0002281279571
0.0001668513666
0.000121226854
8.769033355e-05
6.327907424e-05
4.544443196e-05
3.250996936e-05
2.323455624e-05
1.659574069e-05
1.185249227e-05
8.465584372e-06
6.046014918e-06
4.316329211e-06
3.078999795e-06
2.196198446e-06
1.577583516e-06
1.135029099e-06
8.142954211e-07
5.852048266e-07
4.213334067e-07
3.039025597e-07
2.195935801e-07
1.58953154e-07
1.153087707e-07
8.377731085e-08
6.098423759e-08
4.448033028e-08
3.250973989e-08
2.381178837e-08
1.748004129e-08
1.286186629e-08
9.486713661e-09
7.01482888e-09
5.200528958e-09
3.865876348e-09
2.881784931e-09
2.154444709e-09
1.615556529e-09
1.215298928e-09
9.172559964e-10
6.947546613e-10
5.282156771e-10
4.032348434e-10
3.091908643e-10
2.382335231e-10
1.845469156e-10
1.438119258e-10
1.12813268e-10
8.915160519e-11
7.103218318e-11
5.710929442e-11
4.637155805e-11
3.805710592e-11
3.159072831e-11
2.653718141e-11
2.256641706e-11
1.942762845e-11
1.692983043e-11
1.492729516e-11
1.330860411e-11
1.198840026e-11
1.09011609e-11
9.996486438e-12
9.235528765e-12
8.588278568e-12
8.031501095e-12
7.547162666e-12
7.121229258e-12
6.742747705e-12
6.403141962e-12
6.095673292e-12
5.815025611e-12
5.556986518e-12
5.318201591e-12
5.095984874e-12
4.888172475e-12
4.693009328e-12
4.509061467e-12
4.335147954e-12
4.170287976e-12
4.013659651e-12
3.864567892e-12
3.722419281e-12
3.586702372e-12
3.456972223e-12
3.332838199e-12
3.213954327e-12
3.100011651e-12
2.99073213e-12
2.88586377e-12
2.785176693e-12
2.688459975e-12
2.595519069e-12
2.506173696e-12
2.420256114e-12
2.337609682e-12
2.258087656e-12
2.181552188e-12
2.107873464e-12
2.036928983e-12
1.968602921e-12
1.902785594e-12
1.839372981e-12
1.778266303e-12
1.71937166e-12
1.662599695e-12
1.607865304e-12
1.555087365e-12
1.504188498e-12
1.455094847e-12
1.407735876e-12
1.362044184e-12
1.317955338e-12
1.275407711e-12
1.234342337e-12
1.194702776e-12
1.156434985e-12
1.1194872e-12
1.083809825e-12
1.049355326e-12
1.016078135e-12
9.839345565e-13
9.528826786e-13
9.22882293e-13
8.938948164e-13
8.658832165e-13
8.388119428e-13
8.126468604e-13
7.873551873e-13
7.629054351e-13
7.392673524e-13
7.164118711e-13
6.943110557e-13
6.729380545e-13
6.522670536e-13
6.322732326e-13
6.129327231e-13
5.942225685e-13
5.761206861e-13
5.586058306e-13
5.416575597e-13
5.252562009e-13
5.0938282e-13
4.940191907e-13
4.791477664e-13
4.647516521e-13
4.508145784e-13
4.373208765e-13
4.242554539e-13
4.116037716e-13
3.99351822e-13
3.874861079e-13
3.759936227e-13
3.648618307e-13
3.540786487e-13
3.436324288e-13
3.335119408e-13
3.237063567e-13
3.142052348e-13
3.049985048e-13
2.960764536e-13
2.87429712e-13
2.790492409e-13
2.709263194e-13
2.630525326e-13
2.554197596e-13
2.480201632e-13
2.408461786e-13
2.338905035e-13
2.271460883e-13
2.206061268e-13
2.142640469e-13
2.081135023e-13
2.021483637e-13
1.963627113e-13
1.907508271e-13
1.853071872e-13
1.800264548e-13
1.749034738e-13
1.699332617e-13
1.651110037e-13
1.604320467e-13
1.558918932e-13
1.514861958e-13
1.472107522e-13
1.430614994e-13
1.390345093e-13
1.351259838e-13
1.313322499e-13
1.276497557e-13
1.240750659e-13
1.206048577e-13
1.172359171e-13
1.139651347e-13
1.107895026e-13
1.077061103e-13
1.047121419e-13
1.018048721e-13
9.89816641e-14
9.62399655e-14
9.357730612e-14
9.099129491e-14
8.847961728e-14
8.604003254e-14
8.367037137e-14
8.136853338e-14
7.913248483e-14
7.696025633e-14
7.484994073e-14
7.279969099e-14
7.080771819e-14
6.887228958e-14
6.699172672e-14
6.516440366e-14
6.33887452e-14
6.166322524e-14
5.99863651e-14
5.835673204e-14
5.677293765e-14
5.52336365e-14
5.373752466e-14
5.228333835e-14
5.086985268e-14
4.949588034e-14
4.816027039e-14
4.686190709e-14
4.559970878e-14
4.437262672e-14
4.317964411e-14
4.201977499e-14
4.089206332e-14
3.979558197e-14
3.872943182e-14
3.769274086e-14
3.668466334e-14
3.570437893e-14
3.475109189e-14
3.382403035e-14
3.292244551e-14
3.204561091e-14
3.119282177e-14
3.036339426e-14
2.95566649e-14
2.877198985e-14
2.800874438e-14
2.72663222e-14
2.654413496e-14
2.584161161e-14
2.515819794e-14
2.449335602e-14
2.384656371e-14
2.321731415e-14
2.260511534e-14
2.200948962e-14
2.14299733e-14
2.086611617e-14
2.031748112e-14
1.978364374e-14
1.926419194e-14
1.875872554e-14
1.826685595e-14
1.778820581e-14
1.732240861e-14
1.686910845e-14
1.64279596e-14
1.599862633e-14
1.558078248e-14
1.517411126e-14
1.477830496e-14
1.439306462e-14
1.401809984e-14
1.365312849e-14
1.329787645e-14
1.295207743e-14
1.261547265e-14
1.228781071e-14
1.19688473e-14
1.165834502e-14
1.13560732e-14
1.106180765e-14
1.07753305e-14
1.049643003e-14
1.022490045e-14
9.960541766e-15
9.70315957e-15
9.452564914e-15
9.208574133e-15
8.971008693e-15
8.739695043e-15
8.514464473e-15
8.295152967e-15
8.081601075e-15
7.873653776e-15
7.671160352e-15
7.473974263e-15
7.281953028e-15
7.094958108e-15
6.912854792e-15
6.735512089e-15
6.56280262e-15
6.394602514e-15
6.23079131e-15
6.071251859e-15
5.915870229e-15
5.764535614e-15
5.617140245e-15
5.473579305e-15
5.333750842e-15
5.197555692e-15
5.064897398e-15
4.935682134e-15
4.80981863e-15
4.687218102e-15
4.567794179e-15
4.45146284e-15
4.33814234e-15
4.227753157e-15
4.12021792e-15
4.015461353e-15
3.913410218e-15
3.813993256e-15
3.717141131e-15
3.622786377e-15
3.530863349e-15
3.441308169e-15
3.354058677e-15
3.269054384e-15
3.186236428e-15
3.105547526e-15
3.02693193e-15
2.950335389e-15
2.875705101e-15
2.802989679e-15
2.732139108e-15
2.663104712e-15
2.595839112e-15
2.530296192e-15
2.466431067e-15
2.404200046e-15
2.3435606e-15
2.284471332e-15
2.226891946e-15
2.170783213e-15
2.116106947e-15
2.062825973e-15
2.010904101e-15
1.960306101e-15
1.910997672e-15
1.862945422e-15
1.816116841e-15
1.770480275e-15
1.726004908e-15
1.682660735e-15
1.64041854e-15
1.59924988e-15
1.559127057e-15
1.520023103e-15
1.481911757e-15
1.444767449e-15
1.408565279e-15
1.373281002e-15
1.338891006e-15
1.305372298e-15
1.272702489e-15
1.240859772e-15
1.209822913e-15
1.179571233e-15
1.15008459e-15
1.121343371e-15
1.093328472e-15
1.066021289e-15
1.039403701e-15
1.013458059e-15
9.881671758e-16
9.635143074e-16
9.394831473e-16
9.16057812e-16
8.932228304e-16
8.709631329e-16
8.492640408e-16
8.281112557e-16
8.074908497e-16
7.873892558e-16
7.677932576e-16
7.486899811e-16
7.300668847e-16
7.119117511e-16
6.942126785e-16
6.769580724e-16
6.601366371e-16
6.437373687e-16
6.277495466e-16
6.121627264e-16
5.969667328e-16
5.821516522e-16
5.677078263e-16
5.536258448e-16
5.398965397e-16
5.26510978e-16
5.134604566e-16
5.007364954e-16
4.88330832e-16
4.762354159e-16
4.644424028e-16
4.529441496e-16
4.417332088e-16
4.308023236e-16
4.201444226e-16
4.097526158e-16
3.996201888e-16
3.897405992e-16
3.801074714e-16
3.707145928e-16
3.615559093e-16
3.526255212e-16
3.439176793e-16
3.354267809e-16
3.271473662e-16
3.190741144e-16
3.112018401e-16
3.035254899e-16
2.960401391e-16
2.88740988e-16
2.816233592e-16
2.746826939e-16
2.679145492e-16
2.613145952e-16
2.548786115e-16
2.486024852e-16
2.424822074e-16
2.365138712e-16
2.306936682e-16
2.25017887e-16
2.1948291e-16
2.14085211e-16
2.088213533e-16
2.036879869e-16
1.986818469e-16
1.937997505e-16
1.890385955e-16
1.84395358e-16
1.798670907e-16
1.754509203e-16
1.711440463e-16
1.669437386e-16
1.62847336e-16
1.588522445e-16
1.549559351e-16
1.511559427e-16
1.474498643e-16
1.43835357e-16
1.403101372e-16
1.368719782e-16
1.335187097e-16
1.302482155e-16
1.270584327e-16
1.239473498e-16
1.209130059e-16
1.179534892e-16
1.150669356e-16
1.122515274e-16
1.095054926e-16
1.068271031e-16
1.04214674e-16
1.016665621e-16
9.91811651e-17
9.675692052e-17
9.439230443e-17
9.208583057e-17
8.983604933e-17
8.764154674e-17
8.550094353e-17
8.341289415e-17
8.137608588e-17
7.938923787e-17
7.745110027e-17
7.556045335e-17
7.371610659e-17
7.191689788e-17
7.016169259e-17
6.84493828e-17
6.677888643e-17
6.514914639e-17
6.355912979e-17
6.200782712e-17
6.049425138e-17
5.901743728e-17
5.757644043e-17
5.617033647e-17
5.479822025e-17
5.345920498e-17
5.215242133e-17
5.087701659e-17
4.963215377e-17
4.841701066e-17
4.723077894e-17
4.607266318e-17
4.49418799e-17
4.383765659e-17
4.275923067e-17
4.170584848e-17
4.067676428e-17
3.967123923e-17
3.868854036e-17
3.772793967e-17
3.678871318e-17
3.587014018e-17
3.497150256e-17
3.409208428e-17
3.32311711e-17
3.238805056e-17
3.156201238e-17
3.075234918e-17
2.995835817e-17
2.91793439e-17
2.841462319e-17
2.766353429e-17
2.692545424e-17
2.101998155e-17
1.495745972e-17
1.064589945e-17
7.568940733e-18
5.374234051e-18
3.810667045e-18
2.698189928e-18
1.907731701e-18
1.346861138e-18
9.494621851e-19
6.683001722e-19
4.696727764e-19
3.295651026e-19
2.308886114e-19
1.615006326e-19
1.127854039e-19
7.863877845e-20
5.47426544e-20
3.804715013e-20
2.640155302e-20
1.829168953e-20
1.26532806e-20
8.739518185e-21
6.027247888e-21
4.150611424e-21
2.854190328e-21
1.959972651e-21
1.344106801e-21
9.205695437e-22
6.29713209e-22
4.302475935e-22
2.936373892e-22
2.001939142e-22
1.363539805e-22
9.278852778e-23
6.309042697e-23
4.286565348e-23
2.910496136e-23
1.97501987e-23
1.339547951e-23
9.08161045e-24
6.154892251e-24
4.170283934e-24
2.825089021e-24
1.913606465e-24
1.296159152e-24
8.779681802e-25
5.947597021e-25
4.029692918e-25
2.7308188e-25
1.851076831e-25
1.255115869e-25
8.513046399e-26
5.77615262e-26
3.920594786e-26
2.662124772e-26
1.808288761e-26
1.228756996e-26
8.3524737e-27
5.679409957e-27
3.862908777e-27
2.628022036e-27
1.788229109e-27
1.216940322e-27
8.28201195e-28
5.636215603e-28
3.835177514e-28
2.609076213e-28
1.774373835e-28
1.206176141e-28
8.194646397e-29
5.563487383e-29
3.773997815e-29
2.557590832e-29
1.731293735e-29
1.170440398e-29
7.901311744e-30
5.325381995e-30
3.582826912e-30
2.405803714e-30
1.612028448e-30
1.077727295e-30
7.18802746e-31
4.782646262e-31
3.17366859e-31
2.100647863e-31
1.38718269e-31
9.141423885e-32
6.015419444e-32
3.956972404e-32
2.605914484e-32
1.722543683e-32
1.147150964e-32
7.741550947e-33
5.335348458e-33
3.787452119e-33
2.79782649e-33
2.169686471e-33
1.768572207e-33
1.516901301e-33
1.358475829e-33
1.260361842e-33
1.199521344e-33
1.161073448e-33
1.137721812e-33
1.123122262e-33
1.115314486e-33
1.110528566e-33
1.106175911e-33
1.103522445e-33
1.102823219e-33
1.10200516e-33
1.101441345e-33
1.101315803e-33
1.101570197e-33
1.101422308e-33
1.101713176e-33
1.101128549e-33
1.101385767e-33
1.101543459e-33
1.100685327e-33
1.101358856e-33
1.101276161e-33
1.100464742e-33
1.101093282e-33
1.100369652e-33
1.100956234e-33
1.100384267e-33
1.101392499e-33
1.100832629e-33
1.100349894e-33
1.100561541e-33
1.100237958e-33
1.100192561e-33
1.102381192e-33
1.101724765e-33
1.101764532e-33
1.101651345e-33
1.102549668e-33
1.100668269e-33
1.100513961e-33
1.10009733e-33
1.101741113e-33
1.100168766e-33
1.100525952e-33
1.101227446e-33
1.100540562e-33
1.100609046e-33
1.100303005e-33
1.10027151e-33
1.100764662e-33
1.100827702e-33
1.101923541e-33
1.101576381e-33
1.100976212e-33
1.101593571e-33
1.100315445e-33
1.102320231e-33
1.100880319e-33
1.10108828e-33
1.101621436e-33
1.100226907e-33
1.100003256e-33
1.10040275e-33
1.10116145e-33
1.100490733e-33
1.09989828e-33
1.099992865e-33
1.100408135e-33
1.100696046e-33
1.10014536e-33
1.100222504e-33
1.099694266e-33
1.10021927e-33
1.100238349e-33
1.100740081e-33
1.101005305e-33
1.101238199e-33
1.10026883e-33
1.100595439e-33
1.100612337e-33
1.101207618e-33
1.100543604e-33
1.100527973e-33
1.100525564e-33
1.100228766e-33
1.10004769e-33
1.101160266e-33
1.100788136e-33
1.099998078e-33
1.100180386e-33
1.100524884e-33
1.099874542e-33
1.100519634e-33
1.100299642e-33
1.100101449e-33
1.101979488e-33
1.101039987e-33
1.101232135e-33
1.100157763e-33
1.099730265e-33
1.100173438e-33
1.100697751e-33
1.100430346e-33
1.100120511e-33
1.100766193e-33
1.101049504e-33
1.100060508e-33
1.099840592e-33
1.101101936e-33
1.099940262e-33
1.100163694e-33
1.099822873e-33
1.099998408e-33
1.100445208e-33
1.100009683e-33
1.100006144e-33
1.100930826e-33
1.100184856e-33
1.099944843e-33
1.100089868e-33
1.100713384e-33
1.100272947e-33
1.100521582e-33
1.100698561e-33
1.099897391e-33
1.09979703e-33
1.10067823e-33
1.100113867e-33
1.100116287e-33
1.100454505e-33
1.100706153e-33
1.099739918e-33
1.100177943e-33
1.09979179e-33
1.100381168e-33
1.101353034e-33
1.100398494e-33
1.10033907e-33
1.099500799e-33
1.100003448e-33
1.099623027e-33
1.099523994e-33
1.10062608e-33
1.09959138e-33
1.099461603e-33
1.099875651e-33
1.101466341e-33
1.100131383e-33
1.099707509e-33
)
;

boundaryField
{
    inlet
    {
        type            fixedValue;
        value           uniform 0;
    }
    outlet
    {
        type            zeroGradient;
    }
    wall
    {
        type            empty;
    }
}


// ************************************************************************* //
