/*--------------------------------*- C++ -*----------------------------------*\
  =========                 |
  \\      /  F ield         | OpenFOAM: The Open Source CFD Toolbox
   \\    /   O peration     | Website:  https://openfoam.org
    \\  /    A nd           | Version:  7
     \\/     M anipulation  |
\*---------------------------------------------------------------------------*/
FoamFile
{
    version     2.0;
    format      ascii;
    class       volScalarField;
    location    "0.000558243009";
    object      C3H6_0;
}
// * * * * * * * * * * * * * * * * * * * * * * * * * * * * * * * * * * * * * //

dimensions      [0 0 0 0 0 0 0];

internalField   nonuniform List<scalar> 
1500
(
1.941697306e-13
7.590203084e-13
1.565539437e-12
2.348167837e-12
2.929996846e-12
3.284045635e-12
3.467287022e-12
3.549903288e-12
3.582902902e-12
3.594736467e-12
3.598588479e-12
3.599737416e-12
3.600053937e-12
3.600135027e-12
3.600154459e-12
3.600158837e-12
3.600159768e-12
3.600159956e-12
3.600159992e-12
3.600159999e-12
3.60016e-12
3.60016e-12
3.60016e-12
3.60016e-12
3.60016e-12
3.60016e-12
3.60016e-12
3.60016e-12
3.60016e-12
3.60016e-12
3.60016e-12
3.60016e-12
3.60016e-12
3.60016e-12
3.60016e-12
3.60016e-12
3.60016e-12
3.60016e-12
3.60016e-12
3.60016e-12
3.60016e-12
3.60016e-12
3.60016e-12
3.60016e-12
3.60016e-12
3.60016e-12
3.60016e-12
3.60016e-12
3.60016e-12
3.60016e-12
3.60016e-12
3.60016e-12
3.60016e-12
3.60016e-12
3.60016e-12
3.60016e-12
3.60016e-12
3.60016e-12
3.60016e-12
3.60016e-12
3.60016e-12
3.60016e-12
3.60016e-12
3.60016e-12
3.60016e-12
3.60016e-12
3.60016e-12
3.60016e-12
3.60016e-12
3.60016e-12
3.60016e-12
3.60016e-12
3.60016e-12
3.60016e-12
3.60016e-12
3.60016e-12
3.60016e-12
3.60016e-12
3.60016e-12
3.60016e-12
3.60016e-12
3.60016e-12
3.60016e-12
3.60016e-12
3.60016e-12
3.60016e-12
3.60016e-12
3.60016e-12
3.60016e-12
3.60016e-12
3.60016e-12
3.60016e-12
3.60016e-12
3.60016e-12
3.60016e-12
3.60016e-12
3.60016e-12
3.60016e-12
3.60016e-12
3.60016e-12
3.60016e-12
3.60016e-12
3.60016e-12
3.60016e-12
3.60016e-12
3.60016e-12
3.60016e-12
3.60016e-12
3.60016e-12
3.60016e-12
3.60016e-12
3.60016e-12
3.60016e-12
3.60016e-12
3.60016e-12
3.60016e-12
3.60016e-12
3.60016e-12
3.60016e-12
3.60016e-12
3.60016e-12
3.60016e-12
3.60016e-12
3.60016e-12
3.60016e-12
3.60016e-12
3.60016e-12
3.60016e-12
3.60016e-12
3.60016e-12
3.60016e-12
3.60016e-12
3.60016e-12
3.60016e-12
3.60016e-12
3.60016e-12
3.60016e-12
3.60016e-12
3.60016e-12
3.60016e-12
3.60016e-12
3.60016e-12
3.60016e-12
3.60016e-12
3.60016e-12
3.60016e-12
3.60016e-12
3.60016e-12
3.60016e-12
3.60016e-12
3.60016e-12
3.60016e-12
3.60016e-12
3.60016e-12
3.60016e-12
3.60016e-12
3.60016e-12
3.60016e-12
3.60016e-12
3.60016e-12
3.60016e-12
3.60016e-12
3.60016e-12
3.60016e-12
3.60016e-12
3.60016e-12
3.60016e-12
3.60016e-12
3.60016e-12
3.60016e-12
3.60016e-12
3.60016e-12
3.60016e-12
3.60016e-12
3.60016e-12
3.60016e-12
3.60016e-12
3.60016e-12
3.60016e-12
3.60016e-12
3.60016e-12
3.60016e-12
3.60016e-12
3.60016e-12
3.60016e-12
3.60016e-12
3.60016e-12
3.60016e-12
3.60016e-12
3.60016e-12
3.60016e-12
3.60016e-12
3.60016e-12
3.60016e-12
3.60016e-12
3.60016e-12
3.60016e-12
3.60016e-12
3.60016e-12
3.60016e-12
3.60016e-12
3.60016e-12
3.60016e-12
3.60016e-12
3.60016e-12
3.60016e-12
3.60016e-12
3.60016e-12
3.60016e-12
3.60016e-12
3.60016e-12
3.60016e-12
3.60016e-12
3.60016e-12
3.60016e-12
3.60016e-12
3.60016e-12
3.60016e-12
3.60016e-12
3.60016e-12
3.60016e-12
3.60016e-12
3.60016e-12
3.60016e-12
3.60016e-12
3.60016e-12
3.60016e-12
3.60016e-12
3.60016e-12
3.60016e-12
3.60016e-12
3.60016e-12
3.60016e-12
3.60016e-12
3.60016e-12
3.60016e-12
3.600160002e-12
3.600160008e-12
3.600160033e-12
3.600160124e-12
3.600160446e-12
3.600161514e-12
3.600164834e-12
3.600174452e-12
3.600200302e-12
3.600264347e-12
3.600409095e-12
3.600702187e-12
3.601214663e-12
3.601916259e-12
3.602159943e-12
3.602231985e-12
3.602306841e-12
3.602384646e-12
3.602465503e-12
3.602549524e-12
3.602636832e-12
3.602727564e-12
3.602821868e-12
3.602919903e-12
3.603021833e-12
3.603127834e-12
3.603238086e-12
3.603352782e-12
3.603472122e-12
3.603596317e-12
3.603725591e-12
3.603860176e-12
3.604000319e-12
3.60414628e-12
3.604298332e-12
3.604456762e-12
3.604621876e-12
3.604793992e-12
3.604973449e-12
3.605160603e-12
3.605355829e-12
3.605559525e-12
3.605772108e-12
3.605994022e-12
3.606225732e-12
3.606467733e-12
3.606720545e-12
3.606984719e-12
3.607260837e-12
3.607549513e-12
3.607851397e-12
3.608167178e-12
3.608497581e-12
3.608843376e-12
3.609205374e-12
3.609584435e-12
3.609981468e-12
3.610397435e-12
3.610833353e-12
3.611290296e-12
3.611769404e-12
3.612271879e-12
3.612798994e-12
3.613352096e-12
3.613932608e-12
3.614542036e-12
3.615181973e-12
3.615854101e-12
3.616560202e-12
3.617302156e-12
3.618081953e-12
3.618901695e-12
3.619763603e-12
3.620670023e-12
3.621623436e-12
3.622626459e-12
3.623681857e-12
3.624792549e-12
3.625961616e-12
3.627192309e-12
3.628488059e-12
3.629852483e-12
3.631289397e-12
3.632802823e-12
3.634397001e-12
3.636076397e-12
3.637845717e-12
3.639709915e-12
3.641674206e-12
3.643744081e-12
3.645925313e-12
3.648223977e-12
3.650646458e-12
3.653199468e-12
3.655890056e-12
3.65872563e-12
3.661713964e-12
3.664863217e-12
3.66818195e-12
3.671679141e-12
3.6753642e-12
3.679246989e-12
3.683337839e-12
3.687647565e-12
3.692187488e-12
3.696969451e-12
3.702005838e-12
3.707309595e-12
3.71289425e-12
3.71877393e-12
3.724963383e-12
3.731477999e-12
3.738333828e-12
3.745547606e-12
3.753136769e-12
3.761119482e-12
3.769514654e-12
3.778341962e-12
3.787621873e-12
3.797375664e-12
3.807625444e-12
3.818394178e-12
3.829705702e-12
3.84158475e-12
3.854056973e-12
3.867148957e-12
3.880888248e-12
3.895303368e-12
3.910423837e-12
3.92628019e-12
3.942903997e-12
3.96032788e-12
3.978585531e-12
3.997711726e-12
4.017742346e-12
4.038714386e-12
4.060665972e-12
4.083636375e-12
4.10766602e-12
4.132796499e-12
4.159070579e-12
4.186532212e-12
4.215226542e-12
4.24519991e-12
4.276499857e-12
4.309175132e-12
4.343275687e-12
4.378852679e-12
4.415958471e-12
4.454646623e-12
4.49497189e-12
4.536990217e-12
4.580758722e-12
4.626335693e-12
4.67378057e-12
4.723153934e-12
4.774517485e-12
4.827934027e-12
4.883467446e-12
4.941182686e-12
5.001145724e-12
5.063423543e-12
5.128084101e-12
5.195196304e-12
5.264829965e-12
5.337055775e-12
5.411945264e-12
5.489570758e-12
5.570005341e-12
5.653322808e-12
5.739597627e-12
5.82890488e-12
5.921320228e-12
6.016919849e-12
6.115780393e-12
6.217978926e-12
6.323592877e-12
6.432699981e-12
6.545378223e-12
6.66170578e-12
6.781760962e-12
6.905622154e-12
7.033367758e-12
7.165076127e-12
7.300825514e-12
7.440694005e-12
7.584759463e-12
7.73309947e-12
7.885791265e-12
8.04291169e-12
8.204537135e-12
8.370743479e-12
8.541606041e-12
8.717199529e-12
8.897597989e-12
9.082874759e-12
9.27310243e-12
9.4683528e-12
9.668696841e-12
9.874204664e-12
1.008494549e-11
1.030098762e-11
1.052239844e-11
1.074924435e-11
1.098159082e-11
1.121950235e-11
1.146304246e-11
1.171227372e-11
1.196725777e-11
1.222805531e-11
1.249472617e-11
1.276732929e-11
1.304592283e-11
1.333056417e-11
1.362130999e-11
1.391821635e-11
1.422133875e-11
1.453073224e-11
1.48464515e-11
1.516855095e-11
1.549708489e-11
1.583210762e-11
1.617367358e-11
1.652183748e-11
1.687665455e-11
1.72381806e-11
1.760647233e-11
1.798158743e-11
1.836358489e-11
1.875252517e-11
1.914847046e-11
1.955148498e-11
1.996163519e-11
2.037899012e-11
2.08036217e-11
2.123560502e-11
2.167501871e-11
2.212194527e-11
2.257647149e-11
2.303868876e-11
2.350869353e-11
2.398658773e-11
2.447247917e-11
2.496648204e-11
2.546871735e-11
2.597931346e-11
2.649840656e-11
2.702614122e-11
2.756267094e-11
2.810815871e-11
2.866277759e-11
2.922671138e-11
2.980015516e-11
3.038331603e-11
3.097641371e-11
3.157968129e-11
3.219336593e-11
3.281772956e-11
3.345304971e-11
3.409962025e-11
3.475775218e-11
3.542777452e-11
3.611003513e-11
3.680490157e-11
3.751276207e-11
3.823402638e-11
3.896912679e-11
3.971851912e-11
4.048268368e-11
4.126212637e-11
4.205737969e-11
4.286900393e-11
4.369758823e-11
4.454375177e-11
4.540814501e-11
4.629145091e-11
4.719438635e-11
4.811770301e-11
4.906218952e-11
5.002867231e-11
5.101801683e-11
5.20311294e-11
5.306895864e-11
5.413249712e-11
5.522278299e-11
5.634090168e-11
5.748798758e-11
5.866522581e-11
5.987385405e-11
6.111516432e-11
6.239050499e-11
6.37012828e-11
6.504896451e-11
6.643507971e-11
6.786122282e-11
6.932905554e-11
7.084030914e-11
7.239678742e-11
7.400036947e-11
7.565301193e-11
7.735675191e-11
7.911371028e-11
8.092609491e-11
8.279620407e-11
8.47264301e-11
8.671926313e-11
8.877729523e-11
9.090322469e-11
9.309986064e-11
9.537012805e-11
9.771707306e-11
1.001438688e-10
1.026538216e-10
1.05250378e-10
1.079371321e-10
1.107178338e-10
1.135963983e-10
1.165769157e-10
1.196636628e-10
1.228611155e-10
1.261739634e-10
1.296071256e-10
1.331657695e-10
1.368553313e-10
1.406815405e-10
1.446504471e-10
1.487684536e-10
1.530423516e-10
1.574793646e-10
1.620871975e-10
1.668740946e-10
1.718489069e-10
1.770211716e-10
1.824012044e-10
1.880002088e-10
1.938304045e-10
1.999051781e-10
2.062392614e-10
2.128489418e-10
2.197523108e-10
2.269695579e-10
2.345233181e-10
2.424390844e-10
2.507456948e-10
2.594759113e-10
2.686671054e-10
2.783620715e-10
2.886099922e-10
2.994675839e-10
3.110004569e-10
3.232847305e-10
3.36408951e-10
3.504763701e-10
3.656076514e-10
3.819440865e-10
3.996514155e-10
4.189243679e-10
4.399920586e-10
4.631244001e-10
4.886397246e-10
5.169138426e-10
5.483908088e-10
5.835957203e-10
6.231499268e-10
6.677891108e-10
7.183847776e-10
7.75969799e-10
8.41768774e-10
9.172341165e-10
1.004088948e-09
1.104378075e-09
1.220528587e-09
1.355421862e-09
1.512479158e-09
1.695763323e-09
1.910099675e-09
2.16121964e-09
2.455931448e-09
2.802322955e-09
3.210002643e-09
3.69038595e-09
4.257035459e-09
4.926065031e-09
5.716619887e-09
6.651446848e-09
7.757571636e-09
9.067103239e-09
1.061818909e-08
1.245614925e-08
1.463482288e-08
1.721816665e-08
2.028215189e-08
2.39170159e-08
2.822993314e-08
3.334818393e-08
3.942291248e-08
4.663358276e-08
5.519326037e-08
6.535487154e-08
7.741861746e-08
9.1740754e-08
1.087439835e-07
1.289297492e-07
1.528927721e-07
1.8133823e-07
2.15102044e-07
2.551748184e-07
3.027300654e-07
3.591574533e-07
4.261019276e-07
5.055096908e-07
5.996821686e-07
7.113392572e-07
8.436933231e-07
1.00053562e-06
1.186336994e-06
1.406364965e-06
1.666819478e-06
1.974989846e-06
2.339435566e-06
2.770193873e-06
3.279016978e-06
3.879641927e-06
4.588095946e-06
5.423039831e-06
6.406151509e-06
7.562551144e-06
8.921268172e-06
1.051574929e-05
1.238440467e-05
1.457118765e-05
1.712620047e-05
2.010631617e-05
2.357580341e-05
2.76069383e-05
3.228058438e-05
3.768671959e-05
4.392488785e-05
5.110455233e-05
5.934532896e-05
6.877708131e-05
7.953986287e-05
9.178369867e-05
0.0001056682057
0.0001213620593
0.0001390423218
0.0001588936547
0.0001811074444
0.0002058808745
0.0002334159782
0.0002639187089
0.0002975980622
0.0003346652791
0.0003753331695
0.0004198155485
0.0004683268339
0.0005210817793
0.0005782953529
0.0006401827722
0.0007069597801
0.0007788435369
0.0008560190816
0.0009387962034
0.001027197694
0.001122005057
0.001223424397
0.001331812646
0.001444780935
0.001563855629
0.001688783192
0.001818839079
0.001952405553
0.002086456819
0.002216629418
0.002338552711
0.002448937175
0.00254543281
0.002625705917
0.002688362548
0.002727756177
0.002741145744
0.002724083797
0.002671691866
0.002581217532
0.002450568453
0.002280957903
0.002077280051
0.001848342848
0.001605066416
0.001359552424
0.001123382854
0.0009061674262
0.0007145756373
0.0005515455951
0.0004183598869
0.0003121078571
0.0002302991252
0.000168357691
0.0001222496128
8.838211469e-05
6.375177492e-05
4.587117679e-05
3.290518355e-05
2.360345054e-05
1.694146449e-05
1.217167018e-05
8.757295389e-06
6.308857057e-06
4.550855822e-06
3.286833155e-06
2.377966892e-06
1.73040146e-06
1.261966504e-06
9.202227047e-07
6.726477299e-07
4.9279753e-07
3.617940693e-07
2.661319461e-07
1.961170319e-07
1.447848579e-07
1.070511576e-07
7.927380298e-08
5.879061372e-08
4.36614969e-08
3.246953202e-08
2.417780312e-08
1.802603324e-08
1.345575896e-08
1.005603749e-08
7.523966313e-09
5.635914875e-09
4.226520717e-09
3.173324679e-09
2.385510321e-09
1.795636275e-09
1.353555356e-09
1.021934416e-09
7.729481148e-10
5.858351525e-10
4.450892262e-10
3.391179202e-10
2.592471127e-10
1.989809169e-10
1.534508892e-10
1.190056224e-10
9.290461035e-11
7.308965726e-11
5.801402898e-11
4.651464667e-11
3.77164014e-11
3.096046248e-11
2.575052552e-11
2.171248489e-11
1.856416004e-11
1.609255652e-11
1.413677767e-11
1.257517666e-11
1.131569222e-11
1.028857597e-11
9.440917319e-12
8.732519741e-12
8.132793684e-12
7.618414426e-12
7.171555736e-12
6.778557137e-12
6.428917796e-12
6.114536524e-12
5.829137326e-12
5.567834856e-12
5.326805431e-12
5.103037732e-12
4.894143656e-12
4.698214653e-12
4.513712436e-12
4.339385705e-12
4.174206582e-12
4.017321981e-12
3.868016314e-12
3.725682827e-12
3.589801479e-12
3.45992183e-12
3.335649749e-12
3.216637042e-12
3.102573323e-12
2.993179612e-12
2.888203263e-12
2.787413921e-12
2.690600281e-12
2.59756747e-12
2.508134917e-12
2.422134605e-12
2.339409631e-12
2.259813007e-12
2.183206644e-12
2.109460506e-12
2.038451877e-12
1.970064737e-12
1.904189213e-12
1.84072111e-12
1.779561491e-12
1.720616304e-12
1.663796056e-12
1.609015513e-12
1.556193437e-12
1.505252339e-12
1.456118261e-12
1.408720574e-12
1.362991791e-12
1.318867395e-12
1.276285686e-12
1.235187627e-12
1.19551671e-12
1.157218831e-12
1.120242168e-12
1.084537069e-12
1.050055948e-12
1.016753189e-12
9.845850487e-13
9.535095716e-13
9.234865077e-13
8.944772339e-13
8.664446803e-13
8.393532606e-13
8.131688057e-13
7.878585012e-13
7.633908276e-13
7.397355042e-13
7.168634347e-13
6.947466567e-13
6.73358293e-13
6.526725052e-13
6.326644495e-13
6.133102352e-13
5.945868845e-13
5.764722942e-13
5.589451995e-13
5.419851395e-13
5.255724239e-13
5.096881014e-13
4.943139294e-13
4.794323456e-13
4.650264401e-13
4.510799293e-13
4.375771305e-13
4.245029381e-13
4.118428005e-13
3.99582698e-13
3.87709122e-13
3.762090546e-13
3.650699495e-13
3.542797134e-13
3.438266886e-13
3.336996355e-13
3.238877171e-13
3.14380483e-13
3.051678546e-13
2.962401111e-13
2.875878752e-13
2.792021009e-13
2.710740602e-13
2.631953311e-13
2.555577866e-13
2.481535829e-13
2.409751495e-13
2.340151782e-13
2.27266614e-13
2.207226451e-13
2.143766945e-13
2.082224108e-13
2.022536602e-13
1.964645182e-13
1.908492625e-13
1.854023648e-13
1.801184845e-13
1.749924614e-13
1.700193094e-13
1.651942101e-13
1.605125068e-13
1.559696987e-13
1.515614353e-13
1.472835109e-13
1.431318599e-13
1.391025511e-13
1.351917836e-13
1.313958818e-13
1.277112913e-13
1.241345743e-13
1.206624055e-13
1.172915687e-13
1.140189524e-13
1.108415464e-13
1.077564382e-13
1.047608098e-13
1.018519343e-13
9.902717269e-14
9.628397108e-14
9.361985747e-14
9.103243917e-14
8.851940002e-14
8.607849779e-14
8.370756167e-14
8.140448986e-14
7.916724724e-14
7.69938631e-14
7.488242901e-14
7.283109669e-14
7.083807604e-14
6.890163316e-14
6.70200885e-14
6.519181504e-14
6.341523656e-14
6.168882594e-14
6.001110358e-14
5.838063577e-14
5.679603323e-14
5.525594966e-14
5.375908029e-14
5.230416054e-14
5.088996474e-14
4.951530483e-14
4.817902915e-14
4.688002125e-14
4.561719879e-14
4.438951239e-14
4.31959446e-14
4.203550887e-14
4.090724856e-14
3.981023596e-14
3.874357141e-14
3.770638236e-14
3.669782256e-14
3.571707116e-14
3.476333197e-14
3.383583263e-14
3.293382388e-14
3.205657886e-14
3.120339234e-14
3.037358011e-14
2.956647825e-14
2.878144259e-14
2.801784801e-14
2.727508786e-14
2.655257344e-14
2.584973338e-14
2.516601314e-14
2.450087448e-14
2.385379494e-14
2.32242674e-14
2.261179955e-14
2.201591347e-14
2.143614519e-14
2.087204425e-14
2.032317329e-14
1.978910766e-14
1.926943503e-14
1.876375499e-14
1.827167875e-14
1.77928287e-14
1.732683817e-14
1.687335102e-14
1.643202136e-14
1.600251323e-14
1.558450033e-14
1.517766568e-14
1.478170138e-14
1.439630832e-14
1.402119594e-14
1.365608195e-14
1.330069209e-14
1.29547599e-14
1.261802649e-14
1.229024028e-14
1.197115686e-14
1.16605387e-14
1.135815498e-14
1.10637814e-14
1.077719999e-14
1.049819888e-14
1.02265722e-14
9.962119823e-15
9.704647252e-15
9.453965433e-15
9.209890602e-15
8.972244129e-15
8.74085237e-15
8.515546524e-15
8.296162489e-15
8.082540728e-15
7.874526139e-15
7.671967923e-15
7.474719462e-15
7.282638201e-15
7.095585527e-15
6.913426658e-15
6.736030534e-15
6.563269708e-15
6.395020245e-15
6.231161621e-15
6.071576626e-15
5.916151269e-15
5.764774685e-15
5.61733905e-15
5.473739491e-15
5.333874006e-15
5.197643378e-15
5.0649511e-15
4.935703299e-15
4.809808658e-15
4.687178346e-15
4.56772595e-15
4.451367405e-15
4.338020925e-15
4.227606947e-15
4.120048061e-15
4.015268955e-15
3.913196351e-15
3.813758956e-15
3.716887399e-15
3.622514181e-15
3.530573624e-15
3.441001817e-15
3.35373657e-15
3.268717365e-15
3.185885311e-15
3.105183095e-15
3.026554944e-15
2.949946578e-15
2.875305171e-15
2.802579312e-15
2.731718961e-15
2.662675418e-15
2.595401281e-15
2.529850413e-15
2.465977908e-15
2.403740052e-15
2.343094299e-15
2.283999231e-15
2.226414532e-15
2.170300957e-15
2.1156203e-15
2.06233537e-15
2.010409961e-15
1.959808825e-15
1.910497647e-15
1.862443019e-15
1.815612416e-15
1.769974171e-15
1.725497453e-15
1.682152243e-15
1.639909315e-15
1.59874021e-15
1.558617219e-15
1.519513363e-15
1.481402369e-15
1.444258657e-15
1.408057315e-15
1.372774088e-15
1.338385353e-15
1.30486811e-15
1.272199958e-15
1.240359082e-15
1.20932424e-15
1.179074743e-15
1.149590442e-15
1.120851715e-15
1.092839451e-15
1.065535038e-15
1.038920349e-15
1.012977728e-15
9.8768998e-16
9.63040355e-16
9.390125404e-16
9.155906466e-16
8.927591967e-16
8.705031156e-16
8.48807719e-16
8.276587034e-16
8.070421359e-16
7.869444445e-16
7.673524083e-16
7.482531485e-16
7.296341195e-16
7.114830996e-16
6.93788183e-16
6.765377713e-16
6.597205651e-16
6.433255569e-16
6.273420226e-16
6.117595145e-16
5.965678541e-16
5.817571247e-16
5.673176651e-16
5.532400621e-16
5.39515145e-16
5.261339783e-16
5.130878561e-16
5.003682962e-16
4.879670337e-16
4.758760161e-16
4.640873968e-16
4.525935308e-16
4.413869685e-16
4.304604514e-16
4.198069065e-16
4.094194417e-16
3.992913414e-16
3.894160614e-16
3.797872248e-16
3.703986175e-16
3.612441842e-16
3.523180239e-16
3.436143862e-16
3.351276673e-16
3.268524063e-16
3.187832814e-16
3.109151063e-16
3.032428266e-16
2.957615168e-16
2.884663765e-16
2.813527274e-16
2.744160101e-16
2.676517811e-16
2.610557097e-16
2.546235751e-16
2.483512638e-16
2.422347664e-16
2.362701755e-16
2.304536825e-16
2.247815754e-16
2.192502362e-16
2.138561386e-16
2.085958455e-16
2.034660069e-16
1.984633572e-16
1.935847137e-16
1.88826974e-16
1.841871141e-16
1.796621865e-16
1.752493178e-16
1.709457074e-16
1.667486253e-16
1.626554101e-16
1.586634679e-16
1.547702696e-16
1.509733503e-16
1.472703069e-16
1.436587966e-16
1.401365359e-16
1.367012982e-16
1.333509132e-16
1.30083265e-16
1.268962906e-16
1.237879788e-16
1.207563689e-16
1.177995492e-16
1.149156556e-16
1.121028709e-16
1.093594231e-16
1.066835844e-16
1.040736699e-16
1.015280369e-16
9.904508322e-17
9.662324652e-17
9.426100314e-17
9.195686708e-17
8.970938895e-17
8.751715502e-17
8.537878627e-17
8.329293738e-17
8.125829588e-17
7.927358116e-17
7.73375436e-17
7.544896372e-17
7.360665124e-17
7.180944425e-17
7.005620838e-17
6.83458359e-17
6.667724494e-17
6.504937863e-17
6.346120427e-17
6.191171251e-17
6.039991653e-17
5.89248512e-17
5.748557225e-17
5.608115546e-17
5.471069577e-17
5.337330647e-17
5.20681183e-17
5.079427858e-17
4.955095034e-17
4.833731137e-17
4.715255329e-17
4.599588063e-17
4.486650987e-17
4.376366839e-17
4.268659357e-17
4.163453172e-17
4.060673714e-17
3.960247117e-17
3.862100124e-17
3.766160009e-17
3.67235451e-17
3.580611777e-17
3.490860352e-17
3.403029187e-17
3.317047705e-17
3.232845922e-17
3.150354634e-17
3.069505673e-17
2.99023222e-17
2.912469157e-17
2.836153384e-17
2.761224e-17
2.68762214e-17
2.098952584e-17
1.492693626e-17
1.062259078e-17
7.55180199e-18
5.361831347e-18
3.801814755e-18
2.691951241e-18
1.903386963e-18
1.343869691e-18
9.474252912e-19
6.669284522e-19
4.687592194e-19
3.289635648e-19
2.304971911e-19
1.612491145e-19
1.126259622e-19
7.853920873e-20
5.468151996e-20
3.801034975e-20
2.637992457e-20
1.827935747e-20
1.264653015e-20
8.736037323e-21
6.025623086e-21
4.149996397e-21
2.854091152e-21
1.960110302e-21
1.344330519e-21
9.208031276e-22
6.299223477e-22
4.304204361e-22
2.937733004e-22
2.002971939e-22
1.364305259e-22
9.284418985e-23
6.313030669e-23
4.289389258e-23
2.912477299e-23
1.976399732e-23
1.340503698e-23
9.088203613e-24
6.159428214e-24
4.17339988e-24
2.82722855e-24
1.915076279e-24
1.297170196e-24
8.786650102e-25
5.952411524e-25
4.033028683e-25
2.733136954e-25
1.852692726e-25
1.256245592e-25
8.520966531e-26
5.781718984e-26
3.924515252e-26
2.664890814e-26
1.810242899e-26
1.230138795e-26
8.362249417e-27
5.686326627e-27
3.867801225e-27
2.631480523e-27
1.790671669e-27
1.218663281e-27
8.294147324e-28
5.644748227e-28
3.841165199e-28
2.613268889e-28
1.777302666e-28
1.208216852e-28
8.20882596e-29
5.573311209e-29
3.780782563e-29
2.562261406e-29
1.734497345e-29
1.172629477e-29
7.916202604e-30
5.335481251e-30
3.589644735e-30
2.41039426e-30
1.615089765e-30
1.079763058e-30
7.201504329e-31
4.791522111e-31
3.179469188e-31
2.104446277e-31
1.389630902e-31
9.157296143e-32
6.025566071e-32
3.963253147e-32
2.609901498e-32
1.72511553e-32
1.148812097e-32
7.753238271e-33
5.341092768e-33
3.790987687e-33
2.800509201e-33
2.171302994e-33
1.769376148e-33
1.517359556e-33
1.358780796e-33
1.260213402e-33
1.199556296e-33
1.161072816e-33
1.137614271e-33
1.123368153e-33
1.115371736e-33
1.110720086e-33
1.106043058e-33
1.103545262e-33
1.102668584e-33
1.102078787e-33
1.101495113e-33
1.101267712e-33
1.101756825e-33
1.101473945e-33
1.10177112e-33
1.101210959e-33
1.101367716e-33
1.101583755e-33
1.100593209e-33
1.101458484e-33
1.101200027e-33
1.100412165e-33
1.101202842e-33
1.100323214e-33
1.100995423e-33
1.100467777e-33
1.101549994e-33
1.100863761e-33
1.100366543e-33
1.100560376e-33
1.100264494e-33
1.10020313e-33
1.102489141e-33
1.101755133e-33
1.101952677e-33
1.101556963e-33
1.102384588e-33
1.100864799e-33
1.10063434e-33
1.100120653e-33
1.101643242e-33
1.099996154e-33
1.100392611e-33
1.101121659e-33
1.100690101e-33
1.100534085e-33
1.100008309e-33
1.100274029e-33
1.100702585e-33
1.100972161e-33
1.102098031e-33
1.10194318e-33
1.101005687e-33
1.101584717e-33
1.100456969e-33
1.102253354e-33
1.100799413e-33
1.100751119e-33
1.101349614e-33
1.099874442e-33
1.099912758e-33
1.100104563e-33
1.100768394e-33
1.100265388e-33
1.099765865e-33
1.100182638e-33
1.100459281e-33
1.100856039e-33
1.100165656e-33
1.100559809e-33
1.099892375e-33
1.100385005e-33
1.099998222e-33
1.100574315e-33
1.100668357e-33
1.101232355e-33
1.100162756e-33
1.100253727e-33
1.100191523e-33
1.100740024e-33
1.100266495e-33
1.09995951e-33
1.099909548e-33
1.100063255e-33
1.099707643e-33
1.101152922e-33
1.100500738e-33
1.09987675e-33
1.099904238e-33
1.100111532e-33
1.09976589e-33
1.100220154e-33
1.099908696e-33
1.100177921e-33
1.1015543e-33
1.100907989e-33
1.101179256e-33
1.100434782e-33
1.099788186e-33
1.100401817e-33
1.100742955e-33
1.100573549e-33
1.100275307e-33
1.100830309e-33
1.100952679e-33
1.100075225e-33
1.10017151e-33
1.101081105e-33
1.100084448e-33
1.100220563e-33
1.099725454e-33
1.100164757e-33
1.100502396e-33
1.099917646e-33
1.100069137e-33
1.10092782e-33
1.100397694e-33
1.099963365e-33
1.100235408e-33
1.100743676e-33
1.100378427e-33
1.100608852e-33
1.100805331e-33
1.099943498e-33
1.099763843e-33
1.100782996e-33
1.100076199e-33
1.100226156e-33
1.100516549e-33
1.100787667e-33
1.0996448e-33
1.100359501e-33
1.0998765e-33
1.100316952e-33
1.101510975e-33
1.100557727e-33
1.100468552e-33
1.099717616e-33
1.10020154e-33
1.099530501e-33
1.099654255e-33
1.100988027e-33
1.099803323e-33
1.099567666e-33
1.10023967e-33
1.101759168e-33
1.100043885e-33
1.09979021e-33
)
;

boundaryField
{
    inlet
    {
        type            fixedValue;
        value           uniform 0;
    }
    outlet
    {
        type            zeroGradient;
    }
    wall
    {
        type            empty;
    }
}


// ************************************************************************* //
