/*--------------------------------*- C++ -*----------------------------------*\
  =========                 |
  \\      /  F ield         | OpenFOAM: The Open Source CFD Toolbox
   \\    /   O peration     | Website:  https://openfoam.org
    \\  /    A nd           | Version:  7
     \\/     M anipulation  |
\*---------------------------------------------------------------------------*/
FoamFile
{
    version     2.0;
    format      ascii;
    class       volScalarField;
    location    "0.000558243009";
    object      C4H6;
}
// * * * * * * * * * * * * * * * * * * * * * * * * * * * * * * * * * * * * * //

dimensions      [0 0 0 0 0 0 0];

internalField   nonuniform List<scalar> 
1500
(
8.219996508e-15
3.207630596e-14
6.608000492e-14
9.890073827e-14
1.231291373e-13
1.377552852e-13
1.452608925e-13
1.486148418e-13
1.499422437e-13
1.504137765e-13
1.505657982e-13
1.506107006e-13
1.506229489e-13
1.506260555e-13
1.506267925e-13
1.506269569e-13
1.506269915e-13
1.506269984e-13
1.506269997e-13
1.506269999e-13
1.50627e-13
1.50627e-13
1.50627e-13
1.50627e-13
1.50627e-13
1.50627e-13
1.50627e-13
1.50627e-13
1.50627e-13
1.50627e-13
1.50627e-13
1.50627e-13
1.50627e-13
1.50627e-13
1.50627e-13
1.50627e-13
1.50627e-13
1.50627e-13
1.50627e-13
1.50627e-13
1.50627e-13
1.50627e-13
1.50627e-13
1.50627e-13
1.50627e-13
1.50627e-13
1.50627e-13
1.50627e-13
1.50627e-13
1.50627e-13
1.50627e-13
1.50627e-13
1.50627e-13
1.50627e-13
1.50627e-13
1.50627e-13
1.50627e-13
1.50627e-13
1.50627e-13
1.50627e-13
1.50627e-13
1.50627e-13
1.50627e-13
1.50627e-13
1.50627e-13
1.50627e-13
1.50627e-13
1.50627e-13
1.50627e-13
1.50627e-13
1.50627e-13
1.50627e-13
1.50627e-13
1.50627e-13
1.50627e-13
1.50627e-13
1.50627e-13
1.50627e-13
1.50627e-13
1.50627e-13
1.50627e-13
1.50627e-13
1.50627e-13
1.50627e-13
1.50627e-13
1.50627e-13
1.50627e-13
1.50627e-13
1.50627e-13
1.50627e-13
1.50627e-13
1.50627e-13
1.50627e-13
1.50627e-13
1.50627e-13
1.50627e-13
1.50627e-13
1.50627e-13
1.50627e-13
1.50627e-13
1.50627e-13
1.50627e-13
1.50627e-13
1.50627e-13
1.50627e-13
1.50627e-13
1.50627e-13
1.50627e-13
1.50627e-13
1.50627e-13
1.50627e-13
1.50627e-13
1.50627e-13
1.50627e-13
1.50627e-13
1.50627e-13
1.50627e-13
1.50627e-13
1.50627e-13
1.50627e-13
1.50627e-13
1.50627e-13
1.50627e-13
1.50627e-13
1.50627e-13
1.50627e-13
1.50627e-13
1.50627e-13
1.50627e-13
1.50627e-13
1.50627e-13
1.50627e-13
1.50627e-13
1.50627e-13
1.50627e-13
1.50627e-13
1.50627e-13
1.50627e-13
1.50627e-13
1.50627e-13
1.50627e-13
1.50627e-13
1.50627e-13
1.50627e-13
1.50627e-13
1.50627e-13
1.50627e-13
1.50627e-13
1.50627e-13
1.50627e-13
1.50627e-13
1.50627e-13
1.50627e-13
1.50627e-13
1.50627e-13
1.50627e-13
1.50627e-13
1.50627e-13
1.50627e-13
1.50627e-13
1.50627e-13
1.50627e-13
1.50627e-13
1.50627e-13
1.50627e-13
1.50627e-13
1.50627e-13
1.50627e-13
1.50627e-13
1.50627e-13
1.50627e-13
1.50627e-13
1.50627e-13
1.50627e-13
1.50627e-13
1.50627e-13
1.50627e-13
1.50627e-13
1.50627e-13
1.50627e-13
1.50627e-13
1.50627e-13
1.50627e-13
1.50627e-13
1.50627e-13
1.50627e-13
1.50627e-13
1.50627e-13
1.50627e-13
1.50627e-13
1.50627e-13
1.50627e-13
1.50627e-13
1.50627e-13
1.50627e-13
1.50627e-13
1.50627e-13
1.50627e-13
1.50627e-13
1.50627e-13
1.50627e-13
1.50627e-13
1.50627e-13
1.50627e-13
1.50627e-13
1.50627e-13
1.50627e-13
1.50627e-13
1.50627e-13
1.50627e-13
1.50627e-13
1.50627e-13
1.50627e-13
1.50627e-13
1.50627e-13
1.50627e-13
1.50627e-13
1.50627e-13
1.50627e-13
1.50627e-13
1.50627e-13
1.50627e-13
1.50627e-13
1.50627e-13
1.50627e-13
1.50627e-13
1.50627e-13
1.50627e-13
1.50627e-13
1.50627e-13
1.50627e-13
1.50627e-13
1.50627e-13
1.50627e-13
1.50627e-13
1.50627e-13
1.50627e-13
1.506270001e-13
1.506270003e-13
1.506270014e-13
1.506270056e-13
1.506270213e-13
1.506270765e-13
1.506272558e-13
1.506277946e-13
1.506292772e-13
1.506329719e-13
1.506411503e-13
1.506565934e-13
1.506788482e-13
1.506855844e-13
1.506877786e-13
1.506900592e-13
1.506924307e-13
1.506948966e-13
1.506974601e-13
1.50700125e-13
1.507028954e-13
1.507057759e-13
1.507087711e-13
1.50711886e-13
1.507151257e-13
1.507184957e-13
1.507220015e-13
1.507256492e-13
1.507294449e-13
1.50733395e-13
1.507375065e-13
1.507417865e-13
1.507462425e-13
1.507508825e-13
1.507557146e-13
1.507607478e-13
1.50765991e-13
1.507714541e-13
1.507771471e-13
1.507830807e-13
1.507892662e-13
1.507957155e-13
1.50802441e-13
1.508094559e-13
1.508167742e-13
1.508244103e-13
1.508323799e-13
1.508406991e-13
1.508493853e-13
1.508584566e-13
1.508679322e-13
1.508778325e-13
1.508881789e-13
1.508989942e-13
1.509103024e-13
1.509221289e-13
1.509345006e-13
1.509474462e-13
1.509609956e-13
1.509751811e-13
1.509900363e-13
1.510055974e-13
1.510219023e-13
1.510389914e-13
1.510569075e-13
1.510756962e-13
1.510954055e-13
1.511160866e-13
1.511377937e-13
1.511605844e-13
1.511845198e-13
1.512096647e-13
1.51236088e-13
1.512638627e-13
1.512930665e-13
1.513237815e-13
1.513560953e-13
1.513901005e-13
1.514258958e-13
1.514635855e-13
1.515032806e-13
1.515450989e-13
1.515891652e-13
1.516356121e-13
1.516845801e-13
1.517362185e-13
1.517906853e-13
1.518481482e-13
1.51908785e-13
1.519727841e-13
1.520403453e-13
1.521116799e-13
1.521870121e-13
1.52266579e-13
1.523506318e-13
1.524394363e-13
1.525332735e-13
1.52632441e-13
1.527372531e-13
1.52848042e-13
1.529651591e-13
1.53088975e-13
1.532198815e-13
1.533582917e-13
1.535046418e-13
1.536593914e-13
1.538230255e-13
1.539960548e-13
1.541790174e-13
1.543724798e-13
1.54577038e-13
1.547933194e-13
1.550219833e-13
1.552637226e-13
1.555192654e-13
1.557893761e-13
1.560748567e-13
1.563765486e-13
1.566953341e-13
1.570321375e-13
1.573879269e-13
1.577637159e-13
1.581605646e-13
1.585795819e-13
1.590219266e-13
1.594888091e-13
1.599814931e-13
1.60501297e-13
1.610495957e-13
1.616278224e-13
1.622374694e-13
1.628800907e-13
1.635573028e-13
1.642707865e-13
1.650222887e-13
1.658136231e-13
1.666466727e-13
1.675233902e-13
1.684458e-13
1.694159992e-13
1.704361592e-13
1.715085263e-13
1.726354234e-13
1.738192507e-13
1.750624865e-13
1.763676888e-13
1.777374951e-13
1.791746239e-13
1.806818747e-13
1.822621287e-13
1.839183492e-13
1.856535817e-13
1.874709541e-13
1.893736763e-13
1.913650406e-13
1.934484208e-13
1.956272722e-13
1.979051303e-13
2.002856109e-13
2.027724082e-13
2.053692944e-13
2.080801179e-13
2.109088021e-13
2.138593435e-13
2.169358102e-13
2.201423394e-13
2.234831357e-13
2.269624684e-13
2.305846687e-13
2.343541276e-13
2.382752924e-13
2.423526636e-13
2.46590792e-13
2.509942746e-13
2.555677517e-13
2.603159023e-13
2.652434407e-13
2.703551121e-13
2.756556881e-13
2.811499629e-13
2.868427481e-13
2.927388682e-13
2.98843156e-13
3.051604474e-13
3.116955765e-13
3.184533705e-13
3.254386447e-13
3.32656197e-13
3.401108029e-13
3.478072099e-13
3.557501329e-13
3.639442479e-13
3.723941877e-13
3.811045363e-13
3.900798235e-13
3.993245204e-13
4.08843034e-13
4.186397026e-13
4.28718791e-13
4.390844862e-13
4.497408925e-13
4.606920282e-13
4.71941821e-13
4.834941049e-13
4.953526165e-13
5.075209921e-13
5.200027651e-13
5.328013635e-13
5.45920108e-13
5.593622104e-13
5.731307726e-13
5.872287859e-13
6.016591308e-13
6.164245773e-13
6.315277858e-13
6.469713086e-13
6.627575919e-13
6.788889784e-13
6.953677107e-13
7.12195935e-13
7.293757062e-13
7.469089928e-13
7.647976833e-13
7.830435928e-13
8.016484712e-13
8.206140112e-13
8.399418577e-13
8.596336184e-13
8.796908744e-13
9.001151928e-13
9.209081391e-13
9.420712914e-13
9.636062556e-13
9.855146809e-13
1.007798277e-12
1.030458832e-12
1.053498232e-12
1.07691848e-12
1.10072172e-12
1.124910257e-12
1.149486581e-12
1.174453391e-12
1.199813626e-12
1.225570486e-12
1.251727464e-12
1.278288375e-12
1.305257388e-12
1.332639056e-12
1.360438354e-12
1.38866071e-12
1.417312044e-12
1.446398804e-12
1.475928009e-12
1.505907284e-12
1.536344907e-12
1.567249853e-12
1.598631834e-12
1.630501351e-12
1.662869741e-12
1.695749223e-12
1.729152956e-12
1.763095086e-12
1.797590804e-12
1.832656402e-12
1.868309328e-12
1.904568249e-12
1.941453111e-12
1.978985203e-12
2.01718722e-12
2.056083331e-12
2.095699248e-12
2.136062297e-12
2.177201487e-12
2.21914759e-12
2.261933217e-12
2.305592899e-12
2.350163159e-12
2.395682618e-12
2.442192067e-12
2.489734542e-12
2.538355431e-12
2.588102565e-12
2.639026315e-12
2.691179694e-12
2.744618461e-12
2.799401219e-12
2.855589529e-12
2.913248011e-12
2.972444463e-12
3.033249969e-12
3.095739025e-12
3.159989646e-12
3.22608351e-12
3.294106091e-12
3.364146789e-12
3.436299079e-12
3.510660664e-12
3.587333629e-12
3.666424584e-12
3.748044822e-12
3.8323105e-12
3.919342812e-12
4.009268177e-12
4.102218426e-12
4.198331004e-12
4.297749175e-12
4.400622239e-12
4.50710576e-12
4.6173618e-12
4.731559168e-12
4.849873683e-12
4.972488442e-12
5.099594114e-12
5.231389238e-12
5.368080547e-12
5.509883307e-12
5.657021675e-12
5.809729087e-12
5.968248661e-12
6.132833642e-12
6.303747871e-12
6.481266297e-12
6.665675528e-12
6.857274436e-12
7.056374819e-12
7.263302134e-12
7.478396304e-12
7.702012628e-12
7.934522797e-12
8.176316049e-12
8.427800488e-12
8.689404587e-12
8.961578939e-12
9.244798278e-12
9.539563859e-12
9.846406239e-12
1.016588858e-11
1.049861059e-11
1.084521314e-11
1.120638396e-11
1.158286432e-11
1.197545719e-11
1.238503709e-11
1.281256202e-11
1.3259088e-11
1.372578673e-11
1.421396717e-11
1.472510187e-11
1.52608592e-11
1.582314277e-11
1.641413973e-11
1.703638006e-11
1.769280918e-11
1.838687721e-11
1.912264852e-11
1.990493627e-11
2.073946785e-11
2.163308816e-11
2.259400953e-11
2.363211905e-11
2.475935658e-11
2.599017963e-11
2.734213518e-11
2.883656325e-11
3.049946231e-11
3.236255409e-11
3.44645936e-11
3.685298095e-11
3.958574447e-11
4.273398067e-11
4.638485624e-11
5.064530165e-11
5.564655537e-11
6.154975465e-11
6.855281372e-11
7.689888545e-11
8.688677076e-11
9.888372363e-11
1.133412022e-10
1.308142431e-10
1.519852904e-10
1.776935037e-10
2.089707996e-10
2.470861739e-10
2.936002011e-10
3.504320426e-10
4.199418277e-10
5.050319244e-10
6.092714169e-10
7.370490911e-10
8.937614311e-10
1.086043607e-09
1.322053238e-09
1.611818935e-09
1.96766831e-09
2.404753487e-09
2.941696137e-09
3.601379037e-09
4.411917146e-09
5.407848499e-09
6.631594171e-09
8.135247358e-09
9.982764757e-09
1.225264936e-08
1.504123298e-08
1.846669001e-08
2.267394187e-08
2.784064493e-08
3.418449485e-08
4.197212791e-08
5.152995625e-08
6.325734093e-08
7.764258487e-08
9.528231904e-08
1.169049608e-07
1.433990448e-07
1.758473634e-07
2.155680089e-07
2.641635773e-07
3.235799785e-07
3.961764913e-07
4.848088948e-07
5.929277062e-07
7.246937193e-07
8.851131849e-07
1.080195045e-06
1.317132632e-06
1.60451213e-06
1.95254979e-06
2.373359473e-06
2.881251356e-06
3.493061734e-06
4.228512612e-06
5.110598346e-06
6.165994891e-06
7.425485406e-06
8.924394132e-06
1.070301872e-05
1.280704987e-05
1.528796609e-05
1.820339145e-05
2.161740452e-05
2.560078831e-05
3.023121328e-05
3.559334843e-05
4.177889863e-05
4.888657027e-05
5.702197031e-05
6.629744743e-05
7.683188654e-05
8.875047083e-05
0.0001021844269
0.0001172707755
0.0001341520982
0.0001529763562
0.0001738967796
0.0001970718688
0.0002226655728
0.0002508477677
0.000281795328
0.0003156830474
0.0003527424923
0.0003931184656
0.0004372639911
0.0004854279197
0.0005379305997
0.0005939036244
0.0006542954613
0.0007194104021
0.0007895735607
0.0008651276869
0.0009463961003
0.001033658208
0.001127078494
0.001226573191
0.001331730527
0.001441755171
0.001557888794
0.001673886744
0.001790056542
0.00190368477
0.002012725163
0.002108738173
0.002186657734
0.002238594042
0.002256782713
0.002234022926
0.002166846232
0.00205638298
0.001908845043
0.001734499054
0.001545421304
0.001351804162
0.001165819679
0.0009919450983
0.0008356239104
0.000697664446
0.0005781515692
0.0004761757114
0.0003902603303
0.0003176494027
0.0002569373335
0.0002070149701
0.0001662182168
0.0001330514488
0.0001062052266
8.45527895e-05
6.714428793e-05
5.318461016e-05
4.202314954e-05
3.332456062e-05
2.639314138e-05
2.079696042e-05
1.637113345e-05
1.287492689e-05
1.011513691e-05
7.938185345e-06
6.22237474e-06
4.873195718e-06
3.810784449e-06
2.976335548e-06
2.321781941e-06
1.809013286e-06
1.407841709e-06
1.09438411e-06
8.497717462e-07
6.591195272e-07
5.107027423e-07
3.953000208e-07
3.056696674e-07
2.361329574e-07
1.822431339e-07
1.405229493e-07
1.082569353e-07
8.332726417e-08
6.408430261e-08
4.924467388e-08
3.781112124e-08
2.900960876e-08
2.224002531e-08
1.7037606e-08
1.304278382e-08
9.977661053e-09
7.627671429e-09
5.82730578e-09
4.449014618e-09
3.394590772e-09
2.588485571e-09
1.972630537e-09
1.502429795e-09
1.143661785e-09
8.700864046e-10
6.615987647e-10
5.02806077e-10
3.81931699e-10
2.89971892e-10
2.200475829e-10
1.669064573e-10
1.265408337e-10
9.589463066e-11
7.263882734e-11
5.499953793e-11
4.162646724e-11
3.149233421e-11
2.381602586e-11
1.800392195e-11
1.360512275e-11
1.027730724e-11
7.760713685e-12
5.858322041e-12
4.420768772e-12
3.334870418e-12
2.514897421e-12
1.895942664e-12
1.428884495e-12
1.076562794e-12
8.108773756e-13
6.105873048e-13
4.596425991e-13
3.459200902e-13
2.602659593e-13
1.957708601e-13
1.472213591e-13
1.106849751e-13
8.319640625e-14
6.252036108e-14
4.697236006e-14
3.528338744e-14
2.649770006e-14
1.989569737e-14
1.493572655e-14
1.121018894e-14
8.412443803e-15
6.311861512e-15
4.735025109e-15
3.551569278e-15
2.663515817e-15
1.997244585e-15
1.497450328e-15
1.122595428e-15
8.414891903e-16
6.307152436e-16
4.726972572e-16
3.542449601e-16
2.654614534e-16
1.989222324e-16
1.490584932e-16
1.116939947e-16
8.369731288e-17
6.272079344e-17
4.700462482e-17
3.52298168e-17
2.640789723e-17
1.979817184e-17
1.484567041e-17
1.11346151e-17
8.353533842e-18
6.269108494e-18
4.70657364e-18
3.535027201e-18
2.656423454e-18
1.997326327e-18
1.502731445e-18
1.131438436e-18
8.525848002e-19
6.430499958e-19
4.855113891e-19
3.669884636e-19
2.777527018e-19
2.10511309e-19
1.597959964e-19
1.215053043e-19
9.256188728e-20
7.065587187e-20
5.405265514e-20
4.144895006e-20
3.186495278e-20
2.456355539e-20
1.898980919e-20
1.472555218e-20
1.145539286e-20
8.941200126e-21
7.002965101e-21
5.504437383e-21
4.342339452e-21
3.438263442e-21
2.732579464e-21
2.179852904e-21
1.745394244e-21
1.402659237e-21
1.131287947e-21
9.156240638e-22
7.435955047e-22
6.058670442e-22
4.951979176e-22
4.059540388e-22
3.337369687e-22
2.751011568e-22
2.273379999e-22
1.883105733e-22
1.563268305e-22
1.300420717e-22
1.083837234e-22
9.0493152e-23
7.568052304e-23
6.338966643e-23
5.317064162e-23
4.465824088e-23
3.755508668e-23
3.161829639e-23
2.664891966e-23
2.248354342e-23
1.898759731e-23
1.604999283e-23
1.357881673e-23
1.149786003e-23
9.743809418e-24
8.263969267e-24
7.014406605e-24
5.958435263e-24
5.065377697e-24
4.309545024e-24
3.669400268e-24
3.126865283e-24
2.666750203e-24
2.276278928e-24
1.944696392e-24
1.662940474e-24
1.423370132e-24
1.219537205e-24
1.045996807e-24
8.981478976e-25
7.721006754e-25
6.645638635e-25
5.727520911e-25
4.943060958e-25
4.272266285e-25
3.698187907e-25
3.206450881e-25
2.784855421e-25
2.423043301e-25
2.112220355e-25
1.844907694e-25
1.614751662e-25
1.416343498e-25
1.245086707e-25
1.097062723e-25
9.68935093e-26
8.578624032e-26
7.614181724e-26
6.775353077e-26
6.044475501e-26
5.406459912e-26
4.848430873e-26
4.359355473e-26
3.929839849e-26
3.551788468e-26
3.218276873e-26
2.923370577e-26
2.661983081e-26
2.429734928e-26
2.222877617e-26
2.038167329e-26
1.872801655e-26
1.724379203e-26
1.590826538e-26
1.470361261e-26
1.361429515e-26
1.262686928e-26
1.172939804e-26
1.091192583e-26
1.016541182e-26
9.482303586e-27
8.855904611e-27
8.280421258e-27
7.750595652e-27
7.261652902e-27
6.809910026e-27
6.39172716e-27
6.003930526e-27
5.64370816e-27
5.308655607e-27
4.996697003e-27
4.705715095e-27
4.434038323e-27
4.18006479e-27
3.942461817e-27
3.719962703e-27
3.511451506e-27
3.315718198e-27
3.131984034e-27
2.959376645e-27
2.797102415e-27
2.644436787e-27
2.500730321e-27
2.365299923e-27
2.237682789e-27
2.11735944e-27
2.003902317e-27
1.896813765e-27
1.795779718e-27
1.700410991e-27
1.61039405e-27
1.525398539e-27
1.445078265e-27
1.369186641e-27
1.297351134e-27
1.229411734e-27
1.165123452e-27
1.104387959e-27
1.046934835e-27
9.925028493e-28
9.410334739e-28
8.922731787e-28
8.461401129e-28
8.02431866e-28
7.609275465e-28
7.2168766e-28
6.84542546e-28
6.493467239e-28
6.159894393e-28
5.84311897e-28
5.543452475e-28
5.259929226e-28
4.991314512e-28
4.736280072e-28
4.494374652e-28
4.265199088e-28
4.048059234e-28
3.842685062e-28
3.648076947e-28
3.463976234e-28
3.28890358e-28
3.123094801e-28
2.965585863e-28
2.816402724e-28
2.674288943e-28
2.539338715e-28
2.411610283e-28
2.290217588e-28
2.175465687e-28
2.066079985e-28
1.962170092e-28
1.863502153e-28
1.770248531e-28
1.681475591e-28
1.597671834e-28
1.517873811e-28
1.441811769e-28
1.369946996e-28
1.301795288e-28
1.237021828e-28
1.175514016e-28
1.117009356e-28
1.061511565e-28
1.008849593e-28
9.587777667e-29
9.112169147e-29
8.664291748e-29
8.236337515e-29
7.830648009e-29
7.446208211e-29
7.078171615e-29
6.731310909e-29
6.402084228e-29
6.090218837e-29
5.793465429e-29
5.512537354e-29
5.243882974e-29
4.989436274e-29
4.746825346e-29
4.515464316e-29
4.295344752e-29
4.086902655e-29
3.891536934e-29
3.704625855e-29
3.527731287e-29
3.355961463e-29
3.194606721e-29
3.042093254e-29
2.896337407e-29
2.758522706e-29
2.627640071e-29
2.500659061e-29
2.38061826e-29
2.268389862e-29
2.163841863e-29
2.062031176e-29
1.965975734e-29
1.871143496e-29
1.781330259e-29
1.694787504e-29
1.613798749e-29
1.538800375e-29
1.467337199e-29
1.400191792e-29
1.33385809e-29
1.272417465e-29
1.210070774e-29
1.150637147e-29
1.097087624e-29
1.044408273e-29
9.945254198e-30
9.473022134e-30
9.031031497e-30
8.597958597e-30
8.192900802e-30
7.827686235e-30
7.471338918e-30
7.125731881e-30
6.808180242e-30
6.492851784e-30
6.195548313e-30
5.916828995e-30
5.663562247e-30
5.415752335e-30
5.178508131e-30
4.935095251e-30
4.701422703e-30
4.485877976e-30
4.287792327e-30
4.091138986e-30
3.916470621e-30
3.743285575e-30
3.567552747e-30
3.379553532e-30
3.221058131e-30
3.079710186e-30
2.947169324e-30
2.806039183e-30
2.67529853e-30
2.546040689e-30
2.435014261e-30
2.311066672e-30
2.199485737e-30
2.10884181e-30
2.015674392e-30
1.92716447e-30
1.836655695e-30
1.753969883e-30
1.669010095e-30
1.59897927e-30
1.535830319e-30
1.46629751e-30
1.406738192e-30
1.354560611e-30
1.298504554e-30
1.229730539e-30
1.174532188e-30
1.135750353e-30
1.111325458e-30
1.070651918e-30
1.041951187e-30
1.019615836e-30
9.935111744e-31
9.50254042e-31
9.246679003e-31
8.900558907e-31
8.633506928e-31
8.376410457e-31
8.101067691e-31
7.82413682e-31
7.584145079e-31
7.294270965e-31
7.047854161e-31
6.733547327e-31
6.300495989e-31
5.90925043e-31
5.602940843e-31
5.358529115e-31
5.049590896e-31
4.834073556e-31
4.679208998e-31
4.518383668e-31
4.304919975e-31
4.171580787e-31
3.967387201e-31
3.692564271e-31
3.66046717e-31
3.620845094e-31
3.588971029e-31
3.526743285e-31
3.336954326e-31
3.148419327e-31
2.934221726e-31
2.685273766e-31
2.547047909e-31
2.536679847e-31
2.555156503e-31
2.4813683e-31
2.422485072e-31
2.311094216e-31
2.216541511e-31
2.09442821e-31
1.988327312e-31
1.974126698e-31
1.931943825e-31
1.877134963e-31
1.696921008e-31
1.559951295e-31
1.430144928e-31
1.404782559e-31
1.354291191e-31
1.376752056e-31
1.390162742e-31
1.446093064e-31
1.429131507e-31
1.488986634e-31
1.435935167e-31
1.381187138e-31
1.397298362e-31
1.3626694e-31
1.236312592e-31
1.154673909e-31
1.020200057e-31
9.285184523e-32
9.247832957e-32
9.371909766e-32
8.638550971e-32
8.616450587e-32
9.056956369e-32
9.183921111e-32
9.13716567e-32
8.597188991e-32
7.963397294e-32
7.524316421e-32
7.397273464e-32
6.644503606e-32
6.36061465e-32
6.870992648e-32
6.581385957e-32
6.696766315e-32
6.263718773e-32
5.46808054e-32
5.372326419e-32
4.970032602e-32
4.357310977e-32
4.292820506e-32
4.156644232e-32
4.164301567e-32
4.020164212e-32
3.644771365e-32
3.679987215e-32
3.422872189e-32
3.563227122e-32
3.284127294e-32
3.103101957e-32
3.331416333e-32
3.538995119e-32
3.438919148e-32
3.466787934e-32
3.601520877e-32
3.315893945e-32
3.955056795e-32
9.63276037e-33
1.025593906e-33
0
1.496021185e-32
0
5.47915926e-33
2.420278824e-32
1.935359094e-32
1.73162764e-33
2.766692341e-32
1.447894192e-32
7.013473396e-33
0
1.315288399e-32
9.643397001e-33
0
9.414137128e-33
2.248496511e-33
5.963009661e-33
5.780595404e-33
5.197246636e-34
4.058339249e-35
3.645393277e-33
3.125209104e-33
1.444154793e-33
7.479902289e-34
1.692460236e-34
0
4.02102679e-35
4.749178247e-36
6.139776752e-35
1.491697189e-34
1.864648675e-34
5.024213337e-34
2.637056446e-34
0
9.077098644e-35
2.401842195e-34
1.468013373e-35
3.403573268e-34
1.804261565e-35
2.648102892e-35
2.884696453e-35
3.609300423e-34
5.91052601e-34
4.089262487e-35
1.001595218e-33
0
3.967386842e-35
8.623486666e-34
2.959401687e-34
1.004182055e-35
5.544545948e-35
1.906703354e-34
0
0
5.24674933e-34
4.258064307e-34
1.718661974e-35
2.286380645e-35
4.227895873e-34
1.889955647e-34
0
0
0
2.384449521e-35
1.157851395e-36
1.332980336e-36
5.865154948e-35
1.026324565e-36
0
6.179848865e-35
3.867746436e-35
0
0
4.266425042e-34
2.451430605e-34
9.434596689e-35
2.734812659e-36
5.594213915e-35
9.216820181e-35
2.099841327e-34
1.260664772e-34
4.673071914e-35
0
2.576869216e-35
2.445415551e-35
7.368119618e-35
6.530231637e-35
2.509155623e-35
5.589850619e-36
4.295634251e-36
1.68410354e-37
2.585445349e-36
4.69420104e-37
0
0
1.152367463e-38
3.088895336e-36
2.521333032e-37
1.93357855e-35
5.698970175e-36
1.102046812e-35
1.30510421e-35
0
0
0
4.379554076e-36
1.899113568e-37
6.187420169e-36
4.705633199e-36
1.381996762e-37
3.49215729e-36
6.285766025e-36
3.148927315e-36
5.318174042e-36
8.748088658e-37
1.16930521e-36
2.692623803e-36
3.520138338e-36
4.547833581e-37
5.473124149e-36
2.193186409e-36
3.527758722e-36
2.408353102e-36
0
5.001460268e-37
2.870562015e-38
1.124683468e-36
5.251705138e-37
0
1.237185446e-36
6.032348969e-38
1.773161762e-36
1.908487391e-36
0
1.937412016e-36
3.939057317e-36
2.175326313e-36
0
5.413957593e-38
6.251971064e-36
2.096743186e-36
1.17347272e-36
0
0
6.616101639e-36
9.980891196e-36
6.568707059e-36
1.098507561e-35
2.660054005e-36
7.055074861e-36
0
1.875807206e-36
5.143888949e-38
7.874120118e-38
7.214064617e-38
4.576889773e-36
7.747545731e-36
1.393443029e-35
1.637847519e-35
5.354746041e-36
1.132587905e-35
2.603614777e-35
0
8.435853171e-36
4.067266654e-37
1.774116552e-36
4.738016179e-36
0
0
0
0
6.861936517e-36
0
1.429848474e-35
2.247231402e-36
8.117301665e-36
1.090559636e-35
2.517993877e-35
1.921226469e-35
5.701424991e-36
1.343086728e-35
1.519994795e-35
2.245611616e-36
1.652599478e-36
2.080567186e-36
7.603295155e-36
2.25471778e-36
8.590875542e-36
4.255792323e-36
0
1.42902811e-35
1.641068875e-35
2.067418492e-36
1.426143003e-35
3.419640766e-36
7.643369305e-36
0
0
0
1.00836036e-36
0
0
0
3.89490715e-36
2.12995413e-36
3.896734287e-37
9.570076969e-37
1.117222858e-36
2.189441019e-36
1.221391493e-36
0
0
3.353927191e-36
5.007493096e-38
2.844104136e-36
2.591739782e-38
6.567861451e-37
7.715310977e-37
4.524491614e-37
2.89504474e-39
3.159009383e-37
0
9.254407712e-37
4.104936228e-37
1.09140823e-36
0
0
1.510771096e-36
1.405996455e-36
4.216723727e-37
1.439677382e-36
1.194655874e-37
2.428524605e-36
5.619217837e-37
3.408754569e-36
5.139217171e-37
0
0
0
1.647805964e-38
8.191116301e-38
0
0
0
0
4.997567457e-37
0
)
;

boundaryField
{
    inlet
    {
        type            fixedValue;
        value           uniform 0;
    }
    outlet
    {
        type            zeroGradient;
    }
    wall
    {
        type            empty;
    }
}


// ************************************************************************* //
