/*--------------------------------*- C++ -*----------------------------------*\
  =========                 |
  \\      /  F ield         | OpenFOAM: The Open Source CFD Toolbox
   \\    /   O peration     | Website:  https://openfoam.org
    \\  /    A nd           | Version:  7
     \\/     M anipulation  |
\*---------------------------------------------------------------------------*/
FoamFile
{
    version     2.0;
    format      ascii;
    class       volScalarField;
    location    "0.000558243009";
    object      C4H6_0;
}
// * * * * * * * * * * * * * * * * * * * * * * * * * * * * * * * * * * * * * //

dimensions      [0 0 0 0 0 0 0];

internalField   nonuniform List<scalar> 
1500
(
8.225780512e-15
3.209344642e-14
6.610499871e-14
9.892528959e-14
1.231475829e-13
1.377666031e-13
1.452667808e-13
1.48617503e-13
1.499433071e-13
1.504141576e-13
1.505659221e-13
1.506107375e-13
1.506229591e-13
1.506260581e-13
1.506267931e-13
1.50626957e-13
1.506269915e-13
1.506269984e-13
1.506269997e-13
1.506269999e-13
1.50627e-13
1.50627e-13
1.50627e-13
1.50627e-13
1.50627e-13
1.50627e-13
1.50627e-13
1.50627e-13
1.50627e-13
1.50627e-13
1.50627e-13
1.50627e-13
1.50627e-13
1.50627e-13
1.50627e-13
1.50627e-13
1.50627e-13
1.50627e-13
1.50627e-13
1.50627e-13
1.50627e-13
1.50627e-13
1.50627e-13
1.50627e-13
1.50627e-13
1.50627e-13
1.50627e-13
1.50627e-13
1.50627e-13
1.50627e-13
1.50627e-13
1.50627e-13
1.50627e-13
1.50627e-13
1.50627e-13
1.50627e-13
1.50627e-13
1.50627e-13
1.50627e-13
1.50627e-13
1.50627e-13
1.50627e-13
1.50627e-13
1.50627e-13
1.50627e-13
1.50627e-13
1.50627e-13
1.50627e-13
1.50627e-13
1.50627e-13
1.50627e-13
1.50627e-13
1.50627e-13
1.50627e-13
1.50627e-13
1.50627e-13
1.50627e-13
1.50627e-13
1.50627e-13
1.50627e-13
1.50627e-13
1.50627e-13
1.50627e-13
1.50627e-13
1.50627e-13
1.50627e-13
1.50627e-13
1.50627e-13
1.50627e-13
1.50627e-13
1.50627e-13
1.50627e-13
1.50627e-13
1.50627e-13
1.50627e-13
1.50627e-13
1.50627e-13
1.50627e-13
1.50627e-13
1.50627e-13
1.50627e-13
1.50627e-13
1.50627e-13
1.50627e-13
1.50627e-13
1.50627e-13
1.50627e-13
1.50627e-13
1.50627e-13
1.50627e-13
1.50627e-13
1.50627e-13
1.50627e-13
1.50627e-13
1.50627e-13
1.50627e-13
1.50627e-13
1.50627e-13
1.50627e-13
1.50627e-13
1.50627e-13
1.50627e-13
1.50627e-13
1.50627e-13
1.50627e-13
1.50627e-13
1.50627e-13
1.50627e-13
1.50627e-13
1.50627e-13
1.50627e-13
1.50627e-13
1.50627e-13
1.50627e-13
1.50627e-13
1.50627e-13
1.50627e-13
1.50627e-13
1.50627e-13
1.50627e-13
1.50627e-13
1.50627e-13
1.50627e-13
1.50627e-13
1.50627e-13
1.50627e-13
1.50627e-13
1.50627e-13
1.50627e-13
1.50627e-13
1.50627e-13
1.50627e-13
1.50627e-13
1.50627e-13
1.50627e-13
1.50627e-13
1.50627e-13
1.50627e-13
1.50627e-13
1.50627e-13
1.50627e-13
1.50627e-13
1.50627e-13
1.50627e-13
1.50627e-13
1.50627e-13
1.50627e-13
1.50627e-13
1.50627e-13
1.50627e-13
1.50627e-13
1.50627e-13
1.50627e-13
1.50627e-13
1.50627e-13
1.50627e-13
1.50627e-13
1.50627e-13
1.50627e-13
1.50627e-13
1.50627e-13
1.50627e-13
1.50627e-13
1.50627e-13
1.50627e-13
1.50627e-13
1.50627e-13
1.50627e-13
1.50627e-13
1.50627e-13
1.50627e-13
1.50627e-13
1.50627e-13
1.50627e-13
1.50627e-13
1.50627e-13
1.50627e-13
1.50627e-13
1.50627e-13
1.50627e-13
1.50627e-13
1.50627e-13
1.50627e-13
1.50627e-13
1.50627e-13
1.50627e-13
1.50627e-13
1.50627e-13
1.50627e-13
1.50627e-13
1.50627e-13
1.50627e-13
1.50627e-13
1.50627e-13
1.50627e-13
1.50627e-13
1.50627e-13
1.50627e-13
1.50627e-13
1.50627e-13
1.50627e-13
1.50627e-13
1.50627e-13
1.50627e-13
1.50627e-13
1.50627e-13
1.50627e-13
1.50627e-13
1.50627e-13
1.50627e-13
1.50627e-13
1.50627e-13
1.50627e-13
1.50627e-13
1.50627e-13
1.50627e-13
1.50627e-13
1.506270001e-13
1.506270003e-13
1.506270014e-13
1.506270056e-13
1.506270214e-13
1.506270765e-13
1.506272562e-13
1.506277958e-13
1.506292807e-13
1.506329815e-13
1.506411739e-13
1.506566443e-13
1.506789391e-13
1.506856883e-13
1.506878853e-13
1.506901699e-13
1.50692546e-13
1.506950165e-13
1.506975847e-13
1.507002545e-13
1.507030301e-13
1.507059158e-13
1.507089165e-13
1.507120371e-13
1.507152828e-13
1.50718659e-13
1.507221713e-13
1.507258257e-13
1.507296285e-13
1.50733586e-13
1.507377051e-13
1.507419931e-13
1.507464575e-13
1.507511061e-13
1.507559474e-13
1.5076099e-13
1.507662432e-13
1.507717166e-13
1.507774204e-13
1.507833654e-13
1.507895627e-13
1.507960243e-13
1.508027628e-13
1.508097912e-13
1.508171236e-13
1.508247746e-13
1.508327596e-13
1.508410951e-13
1.508497983e-13
1.508588874e-13
1.508683817e-13
1.508783016e-13
1.508886685e-13
1.508995054e-13
1.509108362e-13
1.509226864e-13
1.509350831e-13
1.509480548e-13
1.509616318e-13
1.509758462e-13
1.509907319e-13
1.510063249e-13
1.510226635e-13
1.510397881e-13
1.510577416e-13
1.510765695e-13
1.510963203e-13
1.51117045e-13
1.511387981e-13
1.511616374e-13
1.511856239e-13
1.512108229e-13
1.512373032e-13
1.512651381e-13
1.512944055e-13
1.513251877e-13
1.513575724e-13
1.513916527e-13
1.514275272e-13
1.514653008e-13
1.515050846e-13
1.515469966e-13
1.515911622e-13
1.516377141e-13
1.516867933e-13
1.517385493e-13
1.517931406e-13
1.518507354e-13
1.519115119e-13
1.51975659e-13
1.520433767e-13
1.521148773e-13
1.521903852e-13
1.522701384e-13
1.523543884e-13
1.524434019e-13
1.525374605e-13
1.526368625e-13
1.527419229e-13
1.52852975e-13
1.529703708e-13
1.530944819e-13
1.53225701e-13
1.533644423e-13
1.535111428e-13
1.536662636e-13
1.538302905e-13
1.540037356e-13
1.541871381e-13
1.543810659e-13
1.545861166e-13
1.548029188e-13
1.550321333e-13
1.552744548e-13
1.55530613e-13
1.558013738e-13
1.560875412e-13
1.563899586e-13
1.5670951e-13
1.570471219e-13
1.574037645e-13
1.577804535e-13
1.581782514e-13
1.585982694e-13
1.590416688e-13
1.595096625e-13
1.600035168e-13
1.605245529e-13
1.610741486e-13
1.616537397e-13
1.622648218e-13
1.629089519e-13
1.635877496e-13
1.643028992e-13
1.650561505e-13
1.658493212e-13
1.666842975e-13
1.675630358e-13
1.684875643e-13
1.694599839e-13
1.704824699e-13
1.715572725e-13
1.726867186e-13
1.738732127e-13
1.751192374e-13
1.764273546e-13
1.778002065e-13
1.792405159e-13
1.807510867e-13
1.823348048e-13
1.839946379e-13
1.857336363e-13
1.875549324e-13
1.894617409e-13
1.914573588e-13
1.935451646e-13
1.957286184e-13
1.980112605e-13
2.003967113e-13
2.0288867e-13
2.054909133e-13
2.082072945e-13
2.110417415e-13
2.139982556e-13
2.170809093e-13
2.202938445e-13
2.236412701e-13
2.271274597e-13
2.30756749e-13
2.34533533e-13
2.384622631e-13
2.425474438e-13
2.467936295e-13
2.512054212e-13
2.557874623e-13
2.605444354e-13
2.65481058e-13
2.70602078e-13
2.759122702e-13
2.814164311e-13
2.871193748e-13
2.930259279e-13
2.991409252e-13
3.054692042e-13
3.120156006e-13
3.187849427e-13
3.257820467e-13
3.330117113e-13
3.404787122e-13
3.481877974e-13
3.561436811e-13
3.643510394e-13
3.728145041e-13
3.815386582e-13
3.905280303e-13
3.997870898e-13
4.093202419e-13
4.191318227e-13
4.292260946e-13
4.396072416e-13
4.502793654e-13
4.612464807e-13
4.725125119e-13
4.840812891e-13
4.959565448e-13
5.081419111e-13
5.206409168e-13
5.334569853e-13
5.465934324e-13
5.600534648e-13
5.738401793e-13
5.879565617e-13
6.02405487e-13
6.171897197e-13
6.323119145e-13
6.477746182e-13
6.635802711e-13
6.797312103e-13
6.962296726e-13
7.130777989e-13
7.302776385e-13
7.478311544e-13
7.657402302e-13
7.84006676e-13
8.02632237e-13
8.216186014e-13
8.409674104e-13
8.606802679e-13
8.807587518e-13
9.012044265e-13
9.220188553e-13
9.432036148e-13
9.647603098e-13
9.866905893e-13
1.008996164e-12
1.031678822e-12
1.054740453e-12
1.078183063e-12
1.1020088e-12
1.126219973e-12
1.150819079e-12
1.175808827e-12
1.201192161e-12
1.226972293e-12
1.253152728e-12
1.279737294e-12
1.306730173e-12
1.334135937e-12
1.361959577e-12
1.390206542e-12
1.418882773e-12
1.447994742e-12
1.477549494e-12
1.507554683e-12
1.538018617e-12
1.568950303e-12
1.600359488e-12
1.632256711e-12
1.664653349e-12
1.697561666e-12
1.730994864e-12
1.76496714e-12
1.799493736e-12
1.834590999e-12
1.870276436e-12
1.906568775e-12
1.943488029e-12
1.981055553e-12
2.019294116e-12
2.058227964e-12
2.097882888e-12
2.138286298e-12
2.179467293e-12
2.221456738e-12
2.264287339e-12
2.307993731e-12
2.352612539e-12
2.398182502e-12
2.444744526e-12
2.492341768e-12
2.541019742e-12
2.59082641e-12
2.641812281e-12
2.694030512e-12
2.747537011e-12
2.802390539e-12
2.858652817e-12
2.916388635e-12
2.975665964e-12
3.036556072e-12
3.099133644e-12
3.163476885e-12
3.22966768e-12
3.297791707e-12
3.367938588e-12
3.440202017e-12
3.514679933e-12
3.591474669e-12
3.670693082e-12
3.752446726e-12
3.836852025e-12
3.924030451e-12
4.014108713e-12
4.107218938e-12
4.203498883e-12
4.303092129e-12
4.40614831e-12
4.51282333e-12
4.623279607e-12
4.737686317e-12
4.85621966e-12
4.979063127e-12
5.106407795e-12
5.238452626e-12
5.37540479e-12
5.517480009e-12
5.66490291e-12
5.817907416e-12
5.976737152e-12
6.141645891e-12
6.312898018e-12
6.490769048e-12
6.67554618e-12
6.867528898e-12
7.067029639e-12
7.274374525e-12
7.48990417e-12
7.713974598e-12
7.946958257e-12
8.189245176e-12
8.441244288e-12
8.703384939e-12
8.97611864e-12
9.259921095e-12
9.555294584e-12
9.862770753e-12
1.018291393e-11
1.051632505e-11
1.086364634e-11
1.122556697e-11
1.160282977e-11
1.199623942e-11
1.240667233e-11
1.283508859e-11
1.328254653e-11
1.375022048e-11
1.423942232e-11
1.475162797e-11
1.528850963e-11
1.585197535e-11
1.644421744e-11
1.706777186e-11
1.772559111e-11
1.842113364e-11
1.915847367e-11
1.994243616e-11
2.077876254e-11
2.167431456e-11
2.263732481e-11
2.367770483e-11
2.480742396e-11
2.604097541e-11
2.739594943e-11
2.88937385e-11
3.056040484e-11
3.242774765e-11
3.453461617e-11
3.69285252e-11
3.966764266e-11
4.282323508e-11
4.648267621e-11
5.075314875e-11
5.576619837e-11
6.168333657e-11
6.870293333e-11
7.706869654e-11
8.708010287e-11
9.910522879e-11
1.135965334e-10
1.311102708e-10
1.523303661e-10
1.780977787e-10
2.094466128e-10
2.476485211e-10
2.942673039e-10
3.512260371e-10
4.20889598e-10
5.061661101e-10
6.106316304e-10
7.386833875e-10
8.95728081e-10
1.088413233e-09
1.324911388e-09
1.615269175e-09
1.971835943e-09
2.409790013e-09
2.9477846e-09
3.608740423e-09
4.420818026e-09
5.41861015e-09
6.644603437e-09
8.150969542e-09
1.000175892e-08
1.227558639e-08
1.506891692e-08
1.850008307e-08
2.271419376e-08
2.788912699e-08
3.424283966e-08
4.204227492e-08
5.161420398e-08
6.33584063e-08
7.776366972e-08
9.542718394e-08
1.170780056e-07
1.436053945e-07
1.760929573e-07
2.158596889e-07
2.645091698e-07
3.239883612e-07
3.966576319e-07
4.853738459e-07
5.935885295e-07
7.254633105e-07
8.860049523e-07
1.081222388e-06
1.318308147e-06
1.605846444e-06
1.954049913e-06
2.375026519e-06
2.883077457e-06
3.495025929e-06
4.230575469e-06
5.11269502e-06
6.168026291e-06
7.427307111e-06
8.925802668e-06
1.070373481e-05
1.280669823e-05
1.528605151e-05
1.819927072e-05
2.161025422e-05
2.558956828e-05
3.021462611e-05
3.556979523e-05
4.1746432e-05
4.88428452e-05
5.696419428e-05
6.62223309e-05
7.673559496e-05
8.862857907e-05
0.0001020318765
0.0001170818352
0.0001339203267
0.0001526945671
0.0001735570065
0.000196665332
0.0002221826553
0.0002502780136
0.0002811274618
0.0003148972124
0.0003518287285
0.0003920203662
0.0004360089199
0.0004840536245
0.0005365421256
0.0005922742296
0.0006524265533
0.0007172997606
0.0007872109041
0.0008624965838
0.0009434767088
0.001030429337
0.001123523096
0.001222697099
0.001327605605
0.001437470275
0.001553472517
0.001669477295
0.001785680835
0.001899497061
0.002008765394
0.002105209056
0.002183627381
0.002236246636
0.0022552843
0.002233776227
0.002168117141
0.002059315559
0.001913378666
0.001740262385
0.001551811454
0.001358878107
0.001172588499
0.0009981042817
0.0008411161508
0.0007024950201
0.0005823494439
0.0004797484495
0.0003931837076
0.0003203666774
0.0002593473687
0.0002090877812
0.000167963819
0.0001344972603
0.0001073967245
8.55467302e-05
6.799424322e-05
5.393221376e-05
4.269548753e-05
3.385689467e-05
2.680825313e-05
2.115343299e-05
1.667386519e-05
1.312812144e-05
1.032395445e-05
8.108539202e-06
6.360333166e-06
4.983223427e-06
3.898996382e-06
3.046926737e-06
2.378214583e-06
1.854102482e-06
1.443856035e-06
1.123142661e-06
8.727296661e-07
6.774398209e-07
5.25314945e-07
4.069474021e-07
3.149468846e-07
2.435160151e-07
1.881131943e-07
1.451852717e-07
1.119559632e-07
8.62586805e-08
6.640466873e-08
5.107915835e-08
3.925970557e-08
3.015207421e-08
2.313996257e-08
1.774563986e-08
1.359916594e-08
1.041435377e-08
7.97002106e-09
6.095385111e-09
4.658698696e-09
3.5584179e-09
2.716345464e-09
2.07231354e-09
1.580064577e-09
1.204063631e-09
9.170339463e-10
6.980535297e-10
5.310864035e-10
4.038503032e-10
3.06944525e-10
2.3317873e-10
1.77056837e-10
1.343804878e-10
1.019446269e-10
7.730397342e-11
5.859401292e-11
4.439387826e-11
3.362139241e-11
2.545278413e-11
1.926131763e-11
1.457041062e-11
1.101784307e-11
8.328449534e-12
6.293296823e-12
4.753815887e-12
3.58971609e-12
2.709785298e-12
2.044890498e-12
1.542655354e-12
1.163415009e-12
8.771431308e-13
6.611186723e-13
4.981550992e-13
3.752571185e-13
2.826021514e-13
2.12768378e-13
1.601499101e-13
1.205139152e-13
9.06653711e-14
6.819339444e-14
5.127936776e-14
3.855186455e-14
2.897699813e-14
2.177557439e-14
1.636051823e-14
1.228962835e-14
9.229917533e-15
6.930706039e-15
5.203326046e-15
3.905817487e-15
2.931391219e-15
2.199734715e-15
1.650461797e-15
1.238179081e-15
9.287711137e-16
6.966039173e-16
5.224204334e-16
3.917570826e-16
2.937527014e-16
2.202528415e-16
1.651363471e-16
1.238091655e-16
9.282394681e-17
6.959423645e-17
5.217978353e-17
3.912530319e-17
2.933940794e-17
2.200371829e-17
1.650464252e-17
1.238218082e-17
9.291511882e-18
6.974175423e-18
5.236456834e-18
3.933176481e-18
2.95553403e-18
2.221994693e-18
1.671457029e-18
1.25813173e-18
9.477033326e-19
7.144537406e-19
5.391067377e-19
4.072128902e-19
3.079394395e-19
2.331636736e-19
1.76793693e-19
1.342595451e-19
1.021319944e-19
7.783690864e-20
5.944127009e-20
4.54928403e-20
3.490001437e-20
2.684178045e-20
2.070023072e-20
1.600996632e-20
1.242015903e-20
9.666095948e-21
7.547830371e-21
5.914158382e-21
4.650587768e-21
3.670300225e-21
2.907358512e-21
2.311597789e-21
1.844780941e-21
1.477702885e-21
1.188007763e-21
9.58541902e-22
7.761096867e-22
6.305326882e-22
5.139371575e-22
4.202136954e-22
3.44606817e-22
2.834026579e-22
2.336908867e-22
1.931828271e-22
1.600722101e-22
1.329283003e-22
1.106136704e-22
9.222075781e-23
7.702277587e-23
6.443561998e-23
5.398820636e-23
4.529930279e-23
3.805937166e-23
3.201628578e-23
2.696405802e-23
2.273390687e-23
1.918715888e-23
1.620958407e-23
1.370685724e-23
1.160091429e-23
9.827011907e-24
8.331347437e-24
7.069129329e-24
6.003004823e-24
5.101775817e-24
4.339346787e-24
3.693860894e-24
3.146988646e-24
2.683341846e-24
2.289987251e-24
1.956044322e-24
1.67235171e-24
1.431188508e-24
1.226042769e-24
1.051417937e-24
9.02671465e-25
7.758801451e-25
6.677253797e-25
5.753994138e-25
4.965247671e-25
4.290879555e-25
3.713818992e-25
3.219585985e-25
2.795899338e-25
2.432333679e-25
2.120037449e-25
1.85148833e-25
1.620294008e-25
1.421014509e-25
1.249022698e-25
1.100381134e-25
9.717333729e-26
8.602205048e-26
7.634050458e-26
6.792089991e-26
6.058547684e-26
5.418296132e-26
4.858390444e-26
4.367736467e-26
3.936869845e-26
3.557678729e-26
3.223199851e-26
2.927485636e-26
2.665420076e-26
2.432595027e-26
2.225246108e-26
2.040103105e-26
1.874392756e-26
1.725675122e-26
1.591885233e-26
1.471213232e-26
1.362100477e-26
1.263198348e-26
1.173335046e-26
1.091485361e-26
1.016764901e-26
9.483913594e-27
8.857048928e-27
8.281017455e-27
7.750698445e-27
7.261561876e-27
6.809572927e-27
6.391179781e-27
6.003215327e-27
5.642920576e-27
5.307822923e-27
4.995698381e-27
4.70461446e-27
4.432851397e-27
4.178850338e-27
3.941284343e-27
3.718852407e-27
3.510316917e-27
3.314598001e-27
3.130777189e-27
2.958163405e-27
2.795907004e-27
2.64326514e-27
2.499555147e-27
2.364294111e-27
2.236901539e-27
2.116708617e-27
2.003246466e-27
1.896225954e-27
1.79517861e-27
1.699804928e-27
1.609731648e-27
1.524708268e-27
1.444395703e-27
1.368473674e-27
1.296655251e-27
1.228823616e-27
1.164614814e-27
1.103858046e-27
1.046365717e-27
9.919772855e-28
9.405401317e-28
8.917759832e-28
8.45615625e-28
8.019152791e-28
7.605182921e-28
7.213486294e-28
6.841819296e-28
6.489490514e-28
6.155927625e-28
5.840088359e-28
5.54084739e-28
5.257405959e-28
4.988681282e-28
4.733826483e-28
4.49264445e-28
4.264017964e-28
4.047526758e-28
3.841943398e-28
3.64703812e-28
3.462182205e-28
3.286724561e-28
3.120534163e-28
2.963281726e-28
2.813366327e-28
2.671428934e-28
2.536841311e-28
2.409236344e-28
2.288223673e-28
2.173423883e-28
2.064153875e-28
1.960533564e-28
1.862195598e-28
1.769430026e-28
1.681138563e-28
1.59758459e-28
1.517857197e-28
1.442014696e-28
1.369899864e-28
1.30150944e-28
1.237118182e-28
1.175789759e-28
1.117683614e-28
1.062035807e-28
1.008974498e-28
9.590139726e-29
9.118344819e-29
8.669086799e-29
8.243945459e-29
7.837169937e-29
7.452645453e-29
7.088841639e-29
6.741399079e-29
6.41091498e-29
6.099323261e-29
5.802006957e-29
5.52044518e-29
5.252564222e-29
4.993658522e-29
4.747871451e-29
4.514005968e-29
4.295309971e-29
4.088007989e-29
3.892448414e-29
3.704152511e-29
3.523995569e-29
3.350342243e-29
3.18677887e-29
3.032951587e-29
2.88888068e-29
2.751344085e-29
2.621386646e-29
2.497973862e-29
2.382599347e-29
2.271789538e-29
2.162635248e-29
2.059004305e-29
1.958101201e-29
1.86635136e-29
1.781584156e-29
1.700746038e-29
1.622507039e-29
1.54824097e-29
1.475703487e-29
1.404180663e-29
1.334678477e-29
1.26942892e-29
1.207311006e-29
1.150349216e-29
1.0954946e-29
1.04804446e-29
1.002345212e-29
9.566245709e-30
9.126295559e-30
8.698574854e-30
8.286302756e-30
7.89575584e-30
7.541930087e-30
7.189985172e-30
6.84194146e-30
6.536291473e-30
6.22796286e-30
5.947829476e-30
5.697417089e-30
5.427001644e-30
5.182065379e-30
4.937381553e-30
4.71212455e-30
4.490526168e-30
4.286812445e-30
4.097547718e-30
3.903408859e-30
3.73066044e-30
3.558313946e-30
3.385448839e-30
3.243350891e-30
3.114780414e-30
2.980786588e-30
2.856625812e-30
2.72698029e-30
2.616049036e-30
2.495994933e-30
2.375484083e-30
2.275154038e-30
2.184289023e-30
2.079421853e-30
1.98371322e-30
1.875715072e-30
1.792620894e-30
1.706717733e-30
1.642454146e-30
1.568860842e-30
1.509067516e-30
1.469340065e-30
1.418003253e-30
1.365137907e-30
1.298688582e-30
1.232554202e-30
1.17901771e-30
1.145454859e-30
1.095211466e-30
1.040257798e-30
1.006369238e-30
9.672723748e-31
9.416218554e-31
9.141578652e-31
8.927374485e-31
8.584271359e-31
8.199864209e-31
7.833225738e-31
7.625697938e-31
7.415144494e-31
7.130324958e-31
6.774197043e-31
6.477929865e-31
6.301450601e-31
6.156305682e-31
6.006393339e-31
5.789882578e-31
5.372628865e-31
4.988050214e-31
4.664678468e-31
4.457068835e-31
4.323092991e-31
4.146449652e-31
3.880273724e-31
3.619142544e-31
3.553398009e-31
3.490254359e-31
3.55751885e-31
3.433216786e-31
3.286904109e-31
3.180920445e-31
3.019264218e-31
2.850747554e-31
2.728499233e-31
2.600078753e-31
2.48775913e-31
2.451053855e-31
2.39807794e-31
2.345947024e-31
2.354339794e-31
2.296639689e-31
2.218974382e-31
2.213141154e-31
2.178763967e-31
2.133099947e-31
2.047104239e-31
1.918138187e-31
1.865021197e-31
1.726219997e-31
1.622302658e-31
1.555749926e-31
1.513835222e-31
1.437690684e-31
1.325452284e-31
1.367522666e-31
1.418835185e-31
1.339046896e-31
1.327382131e-31
1.312977806e-31
1.194819761e-31
1.052703287e-31
9.485155361e-32
9.253812361e-32
8.378722148e-32
7.96434353e-32
8.2611289e-32
9.657831942e-32
1.003358366e-31
1.089229136e-31
1.138606712e-31
1.126757263e-31
1.079283489e-31
9.915556624e-32
9.665901829e-32
8.573574541e-32
8.37128749e-32
7.523919397e-32
6.610180393e-32
6.19425812e-32
5.744130698e-32
4.852530541e-32
4.481737843e-32
4.68036779e-32
5.337104535e-32
5.539490497e-32
5.159888871e-32
5.16974494e-32
5.22249898e-32
5.237444802e-32
5.247703055e-32
4.581440195e-32
4.492819407e-32
4.380936121e-32
4.522960717e-32
5.174717742e-32
5.874860757e-32
5.195384599e-32
5.181414144e-32
4.84046924e-32
5.042147277e-32
3.341465349e-32
3.866856425e-32
1.227458068e-33
0
8.57591601e-33
0
3.411120476e-32
2.98280263e-32
0
6.542996054e-34
2.337849942e-32
7.194364534e-33
3.002732045e-33
4.81656261e-33
1.135112918e-32
8.117600635e-33
2.226498005e-33
3.459740746e-33
4.635344239e-33
7.498923758e-33
1.945242228e-33
8.676992737e-34
2.450611093e-34
2.504480118e-33
1.742597377e-34
8.696487779e-34
4.442845633e-34
2.080912167e-34
2.687097091e-34
5.434478421e-34
3.326516279e-35
4.273091714e-34
1.157806112e-34
4.809896085e-34
9.49277914e-34
7.975491652e-34
1.159398055e-34
1.037898246e-34
1.280174728e-34
1.216047474e-35
3.229755007e-34
3.720721041e-34
2.181407408e-34
3.910544726e-34
6.143663758e-34
0
0
9.749481737e-34
0
3.850106267e-34
0
2.837326213e-34
1.440679852e-35
1.195100013e-34
5.454269842e-34
3.615195864e-34
2.934632507e-34
9.733368301e-34
1.022207668e-33
3.824082668e-35
1.486464662e-34
8.998403524e-36
2.414187818e-34
8.310327302e-35
9.178570126e-35
3.158907403e-36
6.361325444e-35
5.176708488e-36
2.144108437e-36
0
0
0
2.253484595e-34
1.071387325e-34
2.807055926e-34
0
3.073562473e-34
1.32093916e-34
1.9249689e-34
8.370761903e-36
1.458995574e-34
0
0
3.090341522e-34
1.565025342e-34
1.954354087e-35
1.042432373e-36
0
0
0
7.81962161e-35
1.018317275e-36
1.032527709e-35
3.304379086e-38
9.039705597e-36
1.170495345e-36
0
1.532463699e-36
0
8.192927754e-36
1.031894524e-37
2.201896694e-36
7.595204608e-36
4.738047017e-37
9.593811296e-37
1.08514623e-36
2.071036523e-36
1.764605127e-36
1.237353321e-35
1.490392621e-37
4.45184403e-36
4.204229832e-36
1.018451724e-37
4.401391699e-36
3.216067752e-38
9.005059731e-38
1.015131827e-36
9.92743955e-38
2.978127805e-36
1.387480188e-36
9.943196829e-37
8.695501033e-37
4.504824744e-37
0
0
2.372115144e-38
0
1.3405246e-36
7.305849584e-38
0
5.350828134e-38
4.50480262e-37
3.486982061e-36
1.018444271e-37
5.675495131e-36
3.946310925e-36
6.084911197e-37
2.414637832e-36
1.303648702e-35
1.440493775e-36
2.216361233e-36
2.001008332e-37
3.525481919e-36
2.394954595e-36
5.778697771e-36
2.488098182e-36
0
1.733225611e-35
5.690316597e-36
6.278829739e-36
6.266658923e-36
0
0
5.474204898e-37
5.218158256e-37
4.438879518e-36
0
8.806920172e-36
1.288298094e-35
8.466655975e-36
1.376114661e-35
2.947909259e-36
1.342830414e-35
1.776773787e-35
5.32811364e-36
3.157909172e-36
8.476067856e-38
2.081294257e-36
0
1.3555879e-35
1.256974882e-36
4.932597219e-36
0
2.211899443e-37
0
2.600854525e-36
9.999998503e-36
6.939632564e-36
1.078767104e-35
1.052929207e-35
1.175081201e-35
1.088336997e-35
1.179880586e-35
7.052547474e-36
1.932681318e-35
1.600169171e-38
4.250717833e-36
9.55593383e-39
6.405572634e-36
0
9.97308238e-36
1.728021957e-35
8.265157668e-37
1.203343075e-35
9.030306375e-36
4.888159219e-36
3.715045319e-36
5.210552917e-36
8.050332168e-36
1.795123707e-36
0
1.934818056e-36
4.107755557e-36
7.608422429e-37
9.070973485e-37
1.81551486e-36
0
5.719236734e-36
2.047103549e-36
0
3.113215142e-36
6.18234723e-36
0
0
0
8.832044066e-36
4.602257995e-38
3.200658565e-36
1.625743822e-39
8.226630331e-39
1.95422455e-36
1.361561986e-36
1.444480097e-38
8.4786859e-37
3.415365373e-37
2.647816149e-37
1.039104942e-36
1.065515967e-36
1.542771179e-36
3.885391022e-37
0
6.91923643e-40
5.13809992e-38
2.522325812e-36
0
2.31070979e-36
2.523829354e-36
2.167836141e-37
0
0
1.544351774e-36
1.420330145e-38
1.003999802e-37
0
0
0
9.925217561e-37
2.694980591e-36
1.481515768e-36
0
)
;

boundaryField
{
    inlet
    {
        type            fixedValue;
        value           uniform 0;
    }
    outlet
    {
        type            zeroGradient;
    }
    wall
    {
        type            empty;
    }
}


// ************************************************************************* //
