/*--------------------------------*- C++ -*----------------------------------*\
  =========                 |
  \\      /  F ield         | OpenFOAM: The Open Source CFD Toolbox
   \\    /   O peration     | Website:  https://openfoam.org
    \\  /    A nd           | Version:  7
     \\/     M anipulation  |
\*---------------------------------------------------------------------------*/
FoamFile
{
    version     2.0;
    format      ascii;
    class       volScalarField;
    location    "0.000558243009";
    object      C4H7O;
}
// * * * * * * * * * * * * * * * * * * * * * * * * * * * * * * * * * * * * * //

dimensions      [0 0 0 0 0 0 0];

internalField   nonuniform List<scalar> 
1500
(
4.361091562e-21
1.699295243e-20
3.498869916e-20
5.227996074e-20
6.495951719e-20
7.255291245e-20
7.641508913e-20
7.812458575e-20
7.879445426e-20
7.903001512e-20
7.910524257e-20
7.91273347e-20
7.913342247e-20
7.913507985e-20
7.913559078e-20
7.913581018e-20
7.913594449e-20
7.913604213e-20
7.913611652e-20
7.91361736e-20
7.913621713e-20
7.91362495e-20
7.913627214e-20
7.913628596e-20
7.913629181e-20
7.91362908e-20
7.913628441e-20
7.91362744e-20
7.913626264e-20
7.913625089e-20
7.913624062e-20
7.913623292e-20
7.913622847e-20
7.913622758e-20
7.913623026e-20
7.913623631e-20
7.913624538e-20
7.913625704e-20
7.91362708e-20
7.913628614e-20
7.913630255e-20
7.913631951e-20
7.913633653e-20
7.913635317e-20
7.913636906e-20
7.913638392e-20
7.913639757e-20
7.913640993e-20
7.913642099e-20
7.913643083e-20
7.913643958e-20
7.913644739e-20
7.913645441e-20
7.913646079e-20
7.913646664e-20
7.913647202e-20
7.9136477e-20
7.913648155e-20
7.913648565e-20
7.913648923e-20
7.91364922e-20
7.913649445e-20
7.913649588e-20
7.913649637e-20
7.913649581e-20
7.913649412e-20
7.913649123e-20
7.913648708e-20
7.913648168e-20
7.913647503e-20
7.913646721e-20
7.91364583e-20
7.913644846e-20
7.913643783e-20
7.913642664e-20
7.91364151e-20
7.913640345e-20
7.913639195e-20
7.913638087e-20
7.913637045e-20
7.913636093e-20
7.913635254e-20
7.913634549e-20
7.913633993e-20
7.913633602e-20
7.913633386e-20
7.913633351e-20
7.913633501e-20
7.913633836e-20
7.91363435e-20
7.913635036e-20
7.913635884e-20
7.91363688e-20
7.913638006e-20
7.913639245e-20
7.913640575e-20
7.913641975e-20
7.913643422e-20
7.913644892e-20
7.913646363e-20
7.913647813e-20
7.913649222e-20
7.913650572e-20
7.913651847e-20
7.913653034e-20
7.913654124e-20
7.913655111e-20
7.913655992e-20
7.913656768e-20
7.913657441e-20
7.91365802e-20
7.91365851e-20
7.913658923e-20
7.913659269e-20
7.913659559e-20
7.913659803e-20
7.913660011e-20
7.913660193e-20
7.913660354e-20
7.9136605e-20
7.913660636e-20
7.913660763e-20
7.913660882e-20
7.913660992e-20
7.913661093e-20
7.913661181e-20
7.913661256e-20
7.913661314e-20
7.913661354e-20
7.913661373e-20
7.913661372e-20
7.913661348e-20
7.913661302e-20
7.913661234e-20
7.913661142e-20
7.913661026e-20
7.913660886e-20
7.913660721e-20
7.913660528e-20
7.913660306e-20
7.913660052e-20
7.913659762e-20
7.913659432e-20
7.91365906e-20
7.913658641e-20
7.913658172e-20
7.913657651e-20
7.913657076e-20
7.913656447e-20
7.913655763e-20
7.913655027e-20
7.913654242e-20
7.913653412e-20
7.913652544e-20
7.913651643e-20
7.913650719e-20
7.913649779e-20
7.913648833e-20
7.913647889e-20
7.913646958e-20
7.913646048e-20
7.913645168e-20
7.913644328e-20
7.913643535e-20
7.913642798e-20
7.913642122e-20
7.913641517e-20
7.913640988e-20
7.913640541e-20
7.913640183e-20
7.913639919e-20
7.913639754e-20
7.913639695e-20
7.913639745e-20
7.913639907e-20
7.913640186e-20
7.913640582e-20
7.913641095e-20
7.913641724e-20
7.913642466e-20
7.913643315e-20
7.913644262e-20
7.913645298e-20
7.913646408e-20
7.913647577e-20
7.913648785e-20
7.913650012e-20
7.913651234e-20
7.913652427e-20
7.913653563e-20
7.913654616e-20
7.91365556e-20
7.913656371e-20
7.913657027e-20
7.913657509e-20
7.913657804e-20
7.913657902e-20
7.913657798e-20
7.913657495e-20
7.913656998e-20
7.913656316e-20
7.913655463e-20
7.913654453e-20
7.913653304e-20
7.91365203e-20
7.913650648e-20
7.913649173e-20
7.913647622e-20
7.913646012e-20
7.913644362e-20
7.913642697e-20
7.913641044e-20
7.913639437e-20
7.913637913e-20
7.913636513e-20
7.913635276e-20
7.913634235e-20
7.913633409e-20
7.913632801e-20
7.913632386e-20
7.913632111e-20
7.913631888e-20
7.913631594e-20
7.913631077e-20
7.913630164e-20
7.913628674e-20
7.913626433e-20
7.913623299e-20
7.913619178e-20
7.913614045e-20
7.913607965e-20
7.913601098e-20
7.9135937e-20
7.913586117e-20
7.913578761e-20
7.913572078e-20
7.913566498e-20
7.913562389e-20
7.913559998e-20
7.913559401e-20
7.913560467e-20
7.913562894e-20
7.913566428e-20
7.913571693e-20
7.913582683e-20
7.913613275e-20
7.913701103e-20
7.913927824e-20
7.914418019e-20
7.915198044e-20
7.915394092e-20
7.915467435e-20
7.91554385e-20
7.91562349e-20
7.91570647e-20
7.915792913e-20
7.915882959e-20
7.915976761e-20
7.916074483e-20
7.916176297e-20
7.916282381e-20
7.916392922e-20
7.916508114e-20
7.91662816e-20
7.916753272e-20
7.916883673e-20
7.917019595e-20
7.917161281e-20
7.917308987e-20
7.917462978e-20
7.917623534e-20
7.917790949e-20
7.917965527e-20
7.91814759e-20
7.918337474e-20
7.918535531e-20
7.918742132e-20
7.918957664e-20
7.919182534e-20
7.919417167e-20
7.919662011e-20
7.919917536e-20
7.920184236e-20
7.920462629e-20
7.920753259e-20
7.921056698e-20
7.921373548e-20
7.921704441e-20
7.922050043e-20
7.922411055e-20
7.922788213e-20
7.923182294e-20
7.923594116e-20
7.924024542e-20
7.92447448e-20
7.924944889e-20
7.925436781e-20
7.925951223e-20
7.926489343e-20
7.927052333e-20
7.927641451e-20
7.928258028e-20
7.928903473e-20
7.929579276e-20
7.930287012e-20
7.931028354e-20
7.931805071e-20
7.932619038e-20
7.933472245e-20
7.934366803e-20
7.935304949e-20
7.936289062e-20
7.937321666e-20
7.938405444e-20
7.939543245e-20
7.940738102e-20
7.941993237e-20
7.94331208e-20
7.94469828e-20
7.946155721e-20
7.947688541e-20
7.949301143e-20
7.950998223e-20
7.95278478e-20
7.954666145e-20
7.956647998e-20
7.958736397e-20
7.9609378e-20
7.963259093e-20
7.965707623e-20
7.968291223e-20
7.971018249e-20
7.973897614e-20
7.976938826e-20
7.980152027e-20
7.983548032e-20
7.987138378e-20
7.990935368e-20
7.994952123e-20
7.999202631e-20
8.003701804e-20
8.008465537e-20
8.01351077e-20
8.018855551e-20
8.024519105e-20
8.030521904e-20
8.036885747e-20
8.043633832e-20
8.050790846e-20
8.058383045e-20
8.066438349e-20
8.074986432e-20
8.084058825e-20
8.093689018e-20
8.103912564e-20
8.114767191e-20
8.12629292e-20
8.138532182e-20
8.151529941e-20
8.165333825e-20
8.179994257e-20
8.195564589e-20
8.212101246e-20
8.229663868e-20
8.248315458e-20
8.268122535e-20
8.28915529e-20
8.311487742e-20
8.3351979e-20
8.360367929e-20
8.387084319e-20
8.415438047e-20
8.445524756e-20
8.477444923e-20
8.511304034e-20
8.54721276e-20
8.585287126e-20
8.625648693e-20
8.668424727e-20
8.71374837e-20
8.761758813e-20
8.812601461e-20
8.8664281e-20
8.923397054e-20
8.983673341e-20
9.047428826e-20
9.114842361e-20
9.186099924e-20
9.261394748e-20
9.340927438e-20
9.424906089e-20
9.51354638e-20
9.607071665e-20
9.705713053e-20
9.809709471e-20
9.919307713e-20
1.003476248e-19
1.015633639e-19
1.02843e-19
1.041893177e-19
1.056051807e-19
1.070935308e-19
1.086573876e-19
1.102998473e-19
1.12024082e-19
1.138333381e-19
1.157309346e-19
1.177202618e-19
1.198047789e-19
1.219880122e-19
1.242735521e-19
1.266650508e-19
1.291662193e-19
1.317808243e-19
1.345126844e-19
1.37365667e-19
1.40343684e-19
1.434506879e-19
1.466906675e-19
1.500676431e-19
1.535856618e-19
1.572487929e-19
1.610611221e-19
1.650267465e-19
1.691497692e-19
1.73434293e-19
1.778844153e-19
1.825042214e-19
1.872977788e-19
1.922691309e-19
1.974222906e-19
2.027612338e-19
2.082898933e-19
2.140121517e-19
2.199318358e-19
2.260527093e-19
2.323784667e-19
2.389127268e-19
2.456590267e-19
2.52620815e-19
2.598014463e-19
2.672041748e-19
2.748321487e-19
2.826884049e-19
2.907758632e-19
2.990973213e-19
3.076554506e-19
3.164527907e-19
3.254917462e-19
3.34774582e-19
3.443034208e-19
3.540802392e-19
3.641068656e-19
3.743849782e-19
3.849161027e-19
3.957016118e-19
4.067427243e-19
4.180405051e-19
4.295958656e-19
4.414095649e-19
4.534822115e-19
4.658142656e-19
4.784060423e-19
4.912577152e-19
5.043693206e-19
5.17740763e-19
5.313718206e-19
5.452621525e-19
5.594113053e-19
5.738187219e-19
5.884837505e-19
6.034056542e-19
6.185836219e-19
6.340167798e-19
6.497042038e-19
6.656449332e-19
6.818379848e-19
6.982823681e-19
7.149771017e-19
7.319212305e-19
7.491138438e-19
7.665540948e-19
7.842412206e-19
8.021745641e-19
8.20353596e-19
8.387779385e-19
8.574473905e-19
8.763619527e-19
8.955218558e-19
9.149275877e-19
9.34579924e-19
9.544799583e-19
9.746291348e-19
9.950292811e-19
1.015682644e-18
1.036591925e-18
1.057760317e-18
1.079191546e-18
1.10088991e-18
1.122860321e-18
1.145108346e-18
1.167640259e-18
1.19046308e-18
1.213584627e-18
1.237013568e-18
1.260759467e-18
1.284832841e-18
1.309245214e-18
1.334009174e-18
1.359138431e-18
1.384647876e-18
1.410553648e-18
1.436873193e-18
1.463625333e-18
1.490830341e-18
1.518510006e-18
1.546687691e-18
1.575388423e-18
1.604638962e-18
1.634467883e-18
1.664905657e-18
1.695984732e-18
1.727739616e-18
1.760206963e-18
1.793425657e-18
1.827436902e-18
1.862284312e-18
1.898014001e-18
1.934674673e-18
1.972317726e-18
2.010997352e-18
2.050770638e-18
2.091697668e-18
2.133841647e-18
2.177269001e-18
2.222049483e-18
2.268256288e-18
2.315966178e-18
2.365259603e-18
2.416220829e-18
2.468938065e-18
2.523503595e-18
2.580013921e-18
2.638569902e-18
2.699276902e-18
2.762244942e-18
2.827588861e-18
2.895428483e-18
2.965888781e-18
3.039100067e-18
3.115198172e-18
3.194324643e-18
3.276626951e-18
3.362258706e-18
3.45137988e-18
3.544157049e-18
3.64076364e-18
3.741380199e-18
3.846194665e-18
3.95540267e-18
4.069207847e-18
4.187822159e-18
4.311466252e-18
4.44036982e-18
4.574772004e-18
4.714921804e-18
4.861078526e-18
5.013512255e-18
5.172504356e-18
5.338348015e-18
5.511348813e-18
5.691825344e-18
5.88010988e-18
6.076549087e-18
6.281504802e-18
6.495354881e-18
6.718494125e-18
6.951335308e-18
7.194310313e-18
7.44787141e-18
7.712492712e-18
7.98867183e-18
8.276931801e-18
8.57782335e-18
8.891927563e-18
9.219859109e-18
9.562270138e-18
9.919855071e-18
1.029335652e-17
1.068357269e-17
1.109136667e-17
1.151767822e-17
1.196353876e-17
1.243009051e-17
1.291861113e-17
1.343054538e-17
1.396754607e-17
1.453152697e-17
1.512473144e-17
1.574982157e-17
1.640999387e-17
1.710912989e-17
1.785199216e-17
1.864447936e-17
1.949395884e-17
2.040969983e-17
2.140343828e-17
2.249011323e-17
2.36888271e-17
2.502409798e-17
2.652749297e-17
2.823975853e-17
3.021359916e-17
3.251730175e-17
3.523946306e-17
3.849515573e-17
4.24339707e-17
4.72505063e-17
5.319804807e-17
6.060640882e-17
6.990519268e-17
8.165413047e-17
9.658263252e-17
1.156413557e-16
1.400694279e-16
1.714820747e-16
2.119848292e-16
2.643223701e-16
3.320724618e-16
4.198986294e-16
5.338793008e-16
6.819364854e-16
8.743939824e-16
1.124704103e-15
1.450393557e-15
1.874294288e-15
2.426144629e-15
3.144671555e-15
4.08029762e-15
5.298658631e-15
6.885172894e-15
8.950973516e-15
1.164060624e-14
1.514201227e-14
1.969946564e-14
2.563032707e-14
3.334672187e-14
4.338356305e-14
5.643473884e-14
7.339978892e-14
9.544403095e-14
1.240759008e-13
1.612462736e-13
2.09475782e-13
2.72017696e-13
3.530658287e-13
4.580192485e-13
5.938183746e-13
7.693703585e-13
9.960855641e-13
1.288551446e-12
1.665375158e-12
2.150231651e-12
2.773159521e-12
3.572151944e-12
4.595093598e-12
5.902094953e-12
7.56826941e-12
9.686981094e-12
1.237355118e-11
1.576932989e-11
2.004588838e-11
2.540880914e-11
3.210008562e-11
4.039739461e-11
5.060739606e-11
6.30487008e-11
7.801831168e-11
9.573360682e-11
1.162415915e-10
1.392914333e-10
1.641816672e-10
1.896285561e-10
2.137578553e-10
2.343653547e-10
2.495257972e-10
2.583480146e-10
2.613126364e-10
2.59793981e-10
2.55316482e-10
2.493262764e-10
2.431538349e-10
2.37769748e-10
2.336425439e-10
2.30889555e-10
2.295006729e-10
2.294578458e-10
2.307637339e-10
2.334548357e-10
2.375326045e-10
2.430804038e-10
2.499733626e-10
2.579449855e-10
2.66183721e-10
2.744738165e-10
2.816711694e-10
2.860286134e-10
2.85344682e-10
2.774842753e-10
2.621016308e-10
2.401021596e-10
2.143152147e-10
1.881489373e-10
1.642505278e-10
1.434497704e-10
1.266731964e-10
1.127794755e-10
1.00779e-10
8.94676747e-11
7.84171612e-11
6.710953727e-11
5.574736255e-11
4.483890034e-11
3.510162271e-11
2.677590397e-11
1.999102193e-11
1.466530988e-11
1.060659779e-11
7.581658137e-12
5.345249153e-12
3.744506363e-12
2.594908923e-12
1.789136784e-12
1.226226377e-12
8.364055028e-13
5.685691215e-13
3.859811998e-13
2.602548343e-13
1.744137514e-13
1.167119355e-13
7.803321599e-14
5.21419321e-14
3.482708664e-14
2.325684165e-14
1.552373525e-14
1.034917363e-14
6.890915983e-15
4.643038488e-15
3.135427901e-15
2.104619307e-15
1.415733173e-15
9.54493962e-16
6.449399269e-16
4.366783952e-16
2.96234122e-16
2.014806158e-16
1.372194407e-16
9.362981431e-17
6.400806826e-17
4.384164126e-17
3.008711604e-17
2.068829899e-17
1.425363139e-17
9.839776115e-18
6.806160054e-18
4.717046651e-18
3.275506501e-18
2.2788294e-18
1.588366372e-18
1.109101753e-18
7.757944884e-19
5.43558326e-19
3.814490769e-19
2.680910929e-19
1.886889226e-19
1.329811469e-19
9.383706732e-20
6.629182989e-20
4.688211659e-20
3.318770906e-20
2.351434982e-20
1.667387991e-20
1.183187915e-20
8.401333761e-21
5.968834326e-21
4.242761396e-21
3.017161667e-21
2.146381719e-21
1.527404262e-21
1.08723548e-21
7.740804703e-22
5.512447931e-22
3.926149197e-22
2.796532608e-22
1.992190824e-22
1.419319797e-22
1.011255293e-22
7.204469138e-23
5.133207872e-23
3.656669378e-23
2.604414017e-23
1.855194941e-23
1.322318082e-23
9.43083371e-24
6.724206994e-24
4.797617895e-24
3.42028004e-24
2.441279612e-24
1.738939197e-24
1.23415141e-24
8.741449636e-25
6.202696814e-25
4.364886117e-25
3.117656549e-25
2.192342541e-25
1.530187749e-25
1.083920216e-25
7.99338798e-26
5.933150393e-26
4.167688833e-26
2.96194228e-26
2.096827784e-26
1.511048725e-26
1.134443605e-26
9.154106263e-27
8.285607791e-27
8.207034027e-27
9.29421188e-27
1.208485093e-26
1.34171514e-26
1.18687518e-26
1.242821404e-26
1.016080278e-26
9.754950599e-27
1.132430021e-26
1.537652001e-26
1.215737388e-26
1.13863043e-26
1.274363693e-26
1.692265334e-26
1.378781262e-26
1.347141652e-26
1.256770868e-26
1.070592164e-26
9.605767759e-27
7.076998882e-27
5.720435077e-27
5.345669777e-27
4.906772987e-27
5.305995971e-27
6.603559819e-27
5.55319239e-27
5.375488405e-27
3.872209017e-27
3.14938087e-27
3.083433872e-27
3.678753746e-27
5.101098789e-27
7.727607436e-27
5.295673144e-27
3.843438051e-27
3.126029669e-27
3.025370616e-27
3.533862617e-27
4.645539303e-27
5.509925656e-27
5.64760651e-27
6.97946091e-27
4.929120388e-27
3.726602314e-27
3.11244001e-27
2.983107728e-27
3.232092645e-27
3.739112309e-27
4.405285235e-27
3.951595611e-27
3.948174825e-27
4.279774033e-27
5.234496114e-27
4.693240702e-27
5.074343407e-27
6.531438544e-27
5.935938035e-27
5.310284047e-27
3.996552628e-27
2.785678922e-27
1.9988513e-27
1.488434307e-27
1.172204345e-27
1.014885163e-27
1.025830276e-27
1.249885372e-27
1.814393709e-27
2.195597992e-27
3.076186968e-27
4.680348684e-27
4.43064626e-27
5.035134191e-27
5.379296466e-27
6.827191291e-27
6.939933426e-27
5.565142294e-27
4.669467528e-27
4.724027814e-27
4.828716273e-27
3.548654625e-27
2.888041905e-27
2.7830074e-27
2.655048785e-27
3.012458268e-27
2.69889182e-27
2.854823295e-27
3.529183715e-27
4.435768436e-27
4.999234946e-27
6.364054189e-27
4.920828867e-27
4.212422218e-27
3.932285643e-27
4.343678873e-27
4.484461144e-27
4.979164613e-27
4.345441529e-27
4.459509122e-27
3.437003958e-27
2.998168049e-27
3.065086028e-27
3.641126752e-27
3.752870673e-27
4.468890693e-27
3.50865693e-27
3.085234743e-27
3.159516461e-27
3.089377568e-27
3.540084041e-27
4.611138129e-27
5.442971702e-27
5.178957195e-27
5.848767685e-27
4.97160132e-27
4.480280623e-27
3.142615862e-27
2.370560309e-27
1.74853518e-27
1.303548049e-27
1.072225372e-27
9.983238819e-28
1.053573854e-27
1.213181337e-27
1.092019763e-27
1.103619178e-27
8.385138189e-28
6.685214627e-28
5.893766878e-28
5.468697656e-28
5.901251639e-28
7.197368322e-28
9.15774215e-28
1.235412006e-27
1.753252704e-27
1.785866287e-27
1.660498999e-27
1.439863706e-27
1.43268202e-27
1.666542617e-27
2.224469137e-27
1.965923865e-27
2.115390276e-27
1.405926366e-27
1.052931663e-27
1.001863749e-27
1.229776024e-27
1.798188451e-27
1.334806067e-27
1.16232091e-27
1.261085691e-27
1.437854749e-27
1.14227871e-27
1.052830481e-27
1.210119551e-27
1.215550445e-27
1.489961381e-27
1.344709155e-27
1.274729818e-27
1.470415178e-27
1.998518168e-27
1.465687654e-27
1.264882296e-27
1.134191658e-27
1.223690207e-27
1.380950892e-27
1.775616069e-27
1.454666101e-27
1.135638839e-27
9.024241071e-28
7.128197773e-28
5.567397806e-28
4.581263862e-28
4.222953117e-28
4.614344988e-28
6.078595144e-28
6.979187294e-28
9.54967312e-28
8.832259031e-28
7.752190707e-28
8.111055796e-28
1.017321952e-27
1.443543682e-27
1.361814271e-27
1.512786623e-27
1.628062082e-27
2.030192801e-27
2.293811904e-27
1.734951929e-27
1.45286102e-27
1.387757811e-27
1.327553428e-27
1.45188256e-27
1.004845981e-27
7.305297455e-28
5.879818939e-28
5.595940808e-28
3.860890896e-28
2.844759134e-28
2.513813123e-28
2.930121834e-28
4.152860674e-28
6.434901766e-28
1.028112459e-27
1.094904488e-27
1.379923041e-27
1.452547165e-27
1.767150637e-27
1.515399561e-27
1.366226765e-27
1.352760826e-27
1.170362375e-27
1.209273215e-27
1.00591259e-27
8.590910664e-28
7.013900351e-28
6.631129757e-28
5.735822609e-28
5.960997858e-28
4.735628088e-28
3.266458563e-28
2.323686722e-28
1.811203118e-28
1.545971952e-28
1.38957265e-28
1.301004653e-28
1.189303633e-28
1.09444208e-28
1.125346116e-28
1.358365631e-28
1.931096009e-28
1.196867896e-28
7.641042681e-29
4.994403443e-29
3.263262324e-29
1.94063498e-29
1.475034796e-29
3.09172516e-29
7.250115826e-29
1.43884758e-28
1.462673434e-28
1.650075375e-28
1.402346693e-28
1.351076313e-28
1.536070601e-28
2.021871732e-28
2.945980803e-28
3.567519118e-28
4.7891033e-28
3.691337294e-28
3.210501041e-28
3.38042726e-28
3.358950086e-28
4.013004256e-28
5.445447459e-28
4.695483119e-28
4.59849473e-28
5.044377584e-28
6.115133022e-28
5.988936712e-28
6.922078972e-28
5.382161593e-28
4.933298323e-28
3.678753117e-28
3.319200838e-28
3.844275175e-28
4.696506769e-28
6.519087246e-28
6.558411517e-28
7.862349498e-28
5.68330064e-28
4.449411097e-28
3.957351269e-28
3.084793978e-28
2.544077383e-28
2.138362195e-28
1.823449332e-28
1.563037026e-28
1.392095138e-28
1.330011314e-28
1.345561757e-28
1.3553731e-28
1.346747552e-28
1.301726644e-28
1.273249278e-28
1.344971899e-28
1.595188932e-28
1.944178564e-28
2.525799452e-28
1.911105001e-28
1.509115097e-28
1.323837397e-28
1.326985774e-28
1.446735364e-28
1.77864958e-28
2.380154538e-28
2.418817662e-28
1.681862084e-28
1.257015461e-28
1.040853816e-28
9.306966755e-29
9.025984044e-29
9.31440623e-29
1.056737114e-28
1.328172032e-28
1.092597905e-28
9.779531275e-29
9.25587754e-29
8.524469621e-29
7.719738311e-29
6.459145668e-29
5.238416577e-29
4.344883312e-29
3.95963023e-29
4.169041957e-29
4.933010275e-29
6.180488958e-29
7.365689916e-29
8.710796835e-29
1.085617003e-28
1.456943844e-28
2.077256468e-28
3.077666636e-28
2.681500037e-28
2.725475218e-28
3.283389273e-28
3.799641905e-28
3.426439624e-28
3.809939602e-28
3.593427748e-28
3.916661988e-28
4.076229121e-28
4.153487875e-28
4.231745789e-28
4.824521097e-28
4.622910995e-28
5.015354188e-28
4.871008521e-28
3.420092742e-28
2.574243196e-28
2.173244094e-28
2.112305398e-28
1.620762292e-28
1.40379292e-28
1.512671233e-28
1.592845195e-28
1.481221516e-28
1.593253485e-28
1.388498506e-28
1.275676145e-28
1.353482464e-28
1.612088196e-28
2.085409131e-28
2.489352718e-28
1.791406055e-28
1.316845829e-28
9.914452459e-29
7.976364458e-29
7.577581049e-29
9.307656207e-29
1.373923683e-28
1.131406771e-28
1.180307742e-28
9.460049665e-29
9.484859927e-29
8.007680782e-29
8.206329149e-29
1.008916818e-28
1.153001026e-28
1.472503387e-28
1.192881128e-28
1.034757445e-28
9.886039616e-29
1.013666843e-28
9.869085855e-29
1.106937296e-28
1.426621031e-28
2.027764469e-28
2.131155867e-28
2.672872835e-28
2.42423603e-28
2.331939444e-28
2.639977142e-28
2.667864213e-28
2.164066729e-28
1.990439271e-28
1.609559638e-28
1.465005959e-28
1.538429158e-28
1.881874812e-28
1.473112093e-28
1.306546746e-28
1.332303692e-28
1.219559084e-28
1.113271397e-28
1.054747075e-28
1.053912872e-28
1.162097954e-28
1.44305954e-28
1.255169423e-28
1.250061299e-28
1.443246425e-28
1.336097094e-28
1.473826179e-28
1.326760116e-28
9.69489053e-29
7.647124444e-29
5.882535579e-29
3.992204917e-29
2.740366217e-29
2.030052443e-29
1.919400054e-29
2.236783736e-29
2.738919582e-29
3.547819082e-29
4.529184911e-29
6.088603119e-29
5.261119688e-29
5.262243722e-29
6.2699311e-29
8.131698785e-29
7.532562262e-29
7.937828828e-29
9.638198629e-29
9.36204184e-29
1.792195702e-28
4.635654647e-29
4.055336814e-30
3.203676556e-31
7.220590567e-29
0
3.121144878e-29
8.748867335e-29
1.552315008e-28
1.0822501e-29
1.8059191e-28
1.151802628e-28
5.944993584e-29
0
8.154041959e-29
4.673027331e-29
0
5.450792618e-29
1.444179525e-29
4.701837602e-29
4.176571776e-29
3.953490018e-30
2.009890527e-32
1.457001464e-29
1.797799296e-29
8.920694601e-30
2.097202577e-30
1.044318982e-30
0
3.468755601e-31
2.585610745e-32
4.352030186e-31
1.167893452e-30
1.205859086e-30
3.495810579e-30
1.842412303e-30
0
1.68598241e-31
2.013680721e-30
7.890593698e-32
1.307724701e-30
0
1.10515229e-31
0
2.646190305e-30
5.69995053e-30
3.05404184e-31
8.51404061e-30
1.239828318e-31
6.949135732e-32
7.548629521e-30
0
9.115218791e-31
1.223584381e-30
1.563733842e-30
0
0
3.30938667e-30
2.177332637e-30
8.944695305e-32
0
2.747559501e-30
1.934959145e-30
0
0
0
1.856300939e-31
1.824449482e-33
9.751329382e-33
3.597843995e-31
6.351081453e-33
0
2.140583208e-31
1.508309091e-31
0
0
3.777868216e-30
2.66519616e-30
8.053045976e-31
3.480194565e-32
5.242153028e-31
4.13577678e-31
1.929105341e-30
6.586372357e-31
6.429998878e-31
0
3.08114769e-31
2.959730758e-31
6.245775491e-31
3.85007901e-31
1.720493103e-31
8.020266703e-33
5.408776325e-32
2.002831761e-33
1.850241629e-33
2.128646004e-34
0
0
2.964385325e-34
3.779675431e-32
2.10204901e-33
1.60331263e-31
3.703842754e-32
8.36294958e-32
1.198384639e-31
0
0
0
4.458861457e-32
1.557299861e-33
4.678594522e-32
6.846913278e-32
1.475630997e-33
3.293597467e-32
5.761704933e-32
2.562816343e-32
3.574837762e-32
1.352629105e-32
7.523517402e-33
8.435810911e-33
2.168221888e-32
3.682952131e-33
3.619305092e-32
6.573724364e-33
1.01607896e-32
1.629081913e-32
0
5.694114009e-33
1.286325226e-34
2.525275492e-33
3.757280818e-33
0
9.935135567e-33
3.76838064e-34
1.779994224e-32
1.071605697e-32
0
1.445508414e-32
3.939721458e-32
1.964412722e-32
0
3.773469811e-34
3.845461026e-32
9.965363255e-33
3.789926198e-33
0
0
6.711172675e-32
9.040345832e-32
3.468263606e-32
6.851167685e-32
2.507758339e-32
8.961564205e-33
0
3.696160939e-32
0
3.866320981e-34
3.787249522e-33
2.524969759e-32
3.555768918e-32
6.904784973e-32
1.210489015e-31
3.012592129e-32
8.40407829e-32
2.377663767e-31
0
4.908579301e-32
0
2.534848175e-32
4.466773673e-32
0
0
9.212047264e-35
6.962664265e-34
4.361117725e-32
0
9.970147745e-32
1.118521002e-32
5.592114064e-32
4.830683609e-32
2.241963812e-31
1.627059069e-31
1.540039122e-32
9.05178381e-32
1.110873263e-31
0
1.47341641e-32
1.129000196e-32
6.374197991e-32
2.081328508e-32
3.862805304e-32
3.977669287e-32
0
8.343818383e-32
1.129132608e-31
6.427314911e-33
6.721811581e-32
1.534694416e-32
2.094029966e-32
0
0
0
1.128457862e-32
0
0
0
4.139694339e-32
2.24533242e-32
1.899908772e-33
0
2.570438536e-33
2.479058206e-32
1.150687421e-32
0
0
3.202431596e-32
4.714702901e-34
1.344999149e-32
1.589108573e-34
1.219015846e-32
8.520164918e-33
2.827803892e-35
0
2.156054804e-33
0
1.441444126e-35
3.774674418e-33
1.1159797e-32
0
0
1.337813195e-32
6.686155767e-33
3.878261179e-33
8.487811838e-33
9.747174746e-34
2.308173794e-32
0
1.899285588e-32
0
4.832876637e-34
3.429800912e-34
6.436277433e-36
1.311998779e-34
1.140320813e-34
0
5.177906369e-36
1.023045006e-33
0
2.314286044e-34
0
)
;

boundaryField
{
    inlet
    {
        type            fixedValue;
        value           uniform 0;
    }
    outlet
    {
        type            zeroGradient;
    }
    wall
    {
        type            empty;
    }
}


// ************************************************************************* //
