/*--------------------------------*- C++ -*----------------------------------*\
  =========                 |
  \\      /  F ield         | OpenFOAM: The Open Source CFD Toolbox
   \\    /   O peration     | Website:  https://openfoam.org
    \\  /    A nd           | Version:  7
     \\/     M anipulation  |
\*---------------------------------------------------------------------------*/
FoamFile
{
    version     2.0;
    format      ascii;
    class       volScalarField;
    location    "0.000558243009";
    object      C4H7_0;
}
// * * * * * * * * * * * * * * * * * * * * * * * * * * * * * * * * * * * * * //

dimensions      [0 0 0 0 0 0 0];

internalField   nonuniform List<scalar> 
1500
(
4.980212681e-34
1.725756081e-33
2.957294612e-33
3.676001925e-33
3.969204785e-33
4.06233979e-33
4.085816307e-33
4.089690924e-33
4.089212816e-33
4.088123726e-33
4.087031794e-33
4.085915476e-33
4.084751419e-33
4.083586944e-33
4.082497563e-33
4.081543109e-33
4.080750584e-33
4.080117263e-33
4.07962274e-33
4.079241405e-33
4.078950883e-33
4.078735439e-33
4.078585405e-33
4.078494516e-33
4.078456944e-33
4.078465208e-33
4.078509446e-33
4.078577885e-33
4.07865806e-33
4.078738222e-33
4.078808503e-33
4.078861602e-33
4.07889295e-33
4.07890046e-33
4.078884057e-33
4.078845139e-33
4.078786098e-33
4.078709947e-33
4.078620054e-33
4.078519978e-33
4.078413341e-33
4.078303713e-33
4.07819447e-33
4.078088643e-33
4.077988767e-33
4.077896763e-33
4.077813874e-33
4.077740663e-33
4.077677075e-33
4.077622552e-33
4.077576182e-33
4.077536853e-33
4.077503405e-33
4.077474756e-33
4.077449999e-33
4.077428456e-33
4.077409717e-33
4.077393632e-33
4.077380297e-33
4.077370013e-33
4.077363248e-33
4.077360588e-33
4.077362691e-33
4.077370238e-33
4.077383886e-33
4.077404225e-33
4.077431727e-33
4.077466711e-33
4.077509307e-33
4.077559423e-33
4.077616731e-33
4.07768065e-33
4.077750356e-33
4.077824789e-33
4.07790268e-33
4.077982587e-33
4.078062936e-33
4.078142066e-33
4.078218283e-33
4.078289912e-33
4.07835534e-33
4.078413071e-33
4.078461759e-33
4.078500248e-33
4.078527601e-33
4.078543119e-33
4.078546355e-33
4.07853712e-33
4.07851548e-33
4.078481758e-33
4.078436514e-33
4.078380538e-33
4.078314828e-33
4.078240564e-33
4.078159082e-33
4.07807184e-33
4.077980381e-33
4.077886297e-33
4.077791182e-33
4.077696597e-33
4.077604023e-33
4.077514823e-33
4.077430204e-33
4.077351183e-33
4.077278564e-33
4.077212922e-33
4.077154586e-33
4.077103653e-33
4.07705999e-33
4.07702326e-33
4.076992953e-33
4.07696842e-33
4.076948921e-33
4.076933659e-33
4.076921834e-33
4.076912678e-33
4.076905493e-33
4.076899678e-33
4.07689475e-33
4.076890354e-33
4.076886268e-33
4.07688239e-33
4.076878728e-33
4.076875381e-33
4.076872514e-33
4.076870335e-33
4.076869071e-33
4.076868947e-33
4.076870169e-33
4.076872914e-33
4.076877322e-33
4.076883498e-33
4.076891512e-33
4.076901412e-33
4.076913233e-33
4.076927008e-33
4.076942782e-33
4.076960619e-33
4.076980614e-33
4.077002891e-33
4.077027606e-33
4.077054943e-33
4.0770851e-33
4.07711828e-33
4.077154678e-33
4.077194459e-33
4.077237746e-33
4.077284604e-33
4.077335023e-33
4.077388914e-33
4.077446097e-33
4.0775063e-33
4.077569165e-33
4.07763425e-33
4.077701041e-33
4.077768965e-33
4.077837405e-33
4.077905717e-33
4.077973244e-33
4.078039333e-33
4.078103347e-33
4.078164678e-33
4.07822275e-33
4.078277027e-33
4.07832701e-33
4.078372243e-33
4.078412302e-33
4.078446795e-33
4.078475358e-33
4.078497651e-33
4.078513359e-33
4.078522192e-33
4.078523889e-33
4.078518227e-33
4.078505031e-33
4.078484187e-33
4.078455654e-33
4.078419483e-33
4.078375834e-33
4.078324991e-33
4.078267383e-33
4.078203597e-33
4.078134394e-33
4.07806072e-33
4.077983711e-33
4.077904691e-33
4.077825156e-33
4.077746755e-33
4.077671245e-33
4.077600439e-33
4.07753614e-33
4.077480064e-33
4.077433761e-33
4.077398539e-33
4.077375397e-33
4.077364987e-33
4.077367595e-33
4.077383163e-33
4.077411339e-33
4.077451556e-33
4.077503126e-33
4.077565343e-33
4.077637557e-33
4.077719221e-33
4.077809877e-33
4.077909083e-33
4.078016272e-33
4.078130563e-33
4.078250539e-33
4.078374037e-33
4.078498003e-33
4.078618444e-33
4.078730548e-33
4.078828984e-33
4.078908417e-33
4.0789642e-33
4.078993219e-33
4.078994784e-33
4.07897147e-33
4.078929764e-33
4.078880377e-33
4.078838084e-33
4.078821007e-33
4.07884928e-33
4.078943121e-33
4.079120424e-33
4.079394055e-33
4.079769133e-33
4.080240621e-33
4.080791613e-33
4.081392671e-33
4.082002552e-33
4.082570531e-33
4.083040424e-33
4.083356203e-33
4.083468892e-33
4.083344233e-33
4.082970401e-33
4.082364897e-33
4.081579675e-33
4.080703601e-33
4.079861449e-33
4.079209031e-33
4.078924402e-33
4.079195988e-33
4.080208319e-33
4.08212507e-33
4.085057105e-33
4.088971007e-33
4.093374818e-33
4.094753116e-33
4.095187429e-33
4.095618129e-33
4.096047725e-33
4.096477935e-33
4.096910059e-33
4.097345119e-33
4.097783925e-33
4.098227119e-33
4.098675204e-33
4.09912858e-33
4.099587563e-33
4.100052412e-33
4.100523339e-33
4.101000529e-33
4.101484144e-33
4.101974332e-33
4.102471233e-33
4.102974982e-33
4.103485714e-33
4.104003566e-33
4.104528675e-33
4.105061188e-33
4.105601255e-33
4.106149036e-33
4.106704701e-33
4.10726843e-33
4.107840413e-33
4.108420856e-33
4.109009977e-33
4.10960801e-33
4.110215203e-33
4.110831825e-33
4.111458162e-33
4.112094518e-33
4.112741223e-33
4.113398626e-33
4.114067103e-33
4.114747055e-33
4.115438912e-33
4.116143132e-33
4.116860208e-33
4.117590665e-33
4.118335065e-33
4.11909401e-33
4.119868141e-33
4.120658146e-33
4.121464759e-33
4.122288763e-33
4.123130997e-33
4.123992356e-33
4.124873796e-33
4.125776339e-33
4.126701075e-33
4.127649167e-33
4.128621859e-33
4.129620476e-33
4.130646434e-33
4.131701243e-33
4.132786512e-33
4.133903961e-33
4.135055421e-33
4.136242844e-33
4.137468312e-33
4.138734045e-33
4.140042406e-33
4.141395913e-33
4.142797249e-33
4.144249269e-33
4.145755016e-33
4.147317725e-33
4.148940839e-33
4.150628024e-33
4.152383175e-33
4.154210435e-33
4.156114209e-33
4.158099178e-33
4.160170312e-33
4.162332894e-33
4.164592531e-33
4.166955173e-33
4.169427138e-33
4.172015122e-33
4.17472623e-33
4.177567991e-33
4.180548385e-33
4.183675863e-33
4.186959376e-33
4.190408396e-33
4.194032948e-33
4.197843633e-33
4.201851661e-33
4.206068877e-33
4.210507796e-33
4.215181634e-33
4.220104338e-33
4.225290625e-33
4.230756016e-33
4.23651687e-33
4.242590427e-33
4.24899484e-33
4.255749221e-33
4.262873679e-33
4.270389362e-33
4.2783185e-33
4.286684451e-33
4.295511743e-33
4.304826121e-33
4.314654594e-33
4.325025484e-33
4.335968472e-33
4.347514646e-33
4.359696556e-33
4.372548258e-33
4.38610537e-33
4.400405121e-33
4.415486401e-33
4.431389817e-33
4.448157741e-33
4.465834364e-33
4.484465749e-33
4.504099881e-33
4.524786722e-33
4.546578256e-33
4.569528546e-33
4.593693783e-33
4.619132332e-33
4.645904784e-33
4.674074001e-33
4.703705165e-33
4.73486582e-33
4.767625915e-33
4.802057849e-33
4.838236507e-33
4.876239301e-33
4.916146204e-33
4.958039781e-33
5.002005227e-33
5.048130385e-33
5.096505783e-33
5.147224646e-33
5.200382922e-33
5.256079298e-33
5.314415208e-33
5.37549485e-33
5.439425183e-33
5.506315937e-33
5.576279607e-33
5.649431446e-33
5.725889458e-33
5.805774384e-33
5.88920968e-33
5.976321498e-33
6.067238659e-33
6.162092617e-33
6.26101743e-33
6.364149714e-33
6.471628601e-33
6.583595688e-33
6.700194987e-33
6.821572863e-33
6.947877975e-33
7.079261209e-33
7.215875606e-33
7.35787629e-33
7.505420391e-33
7.658666959e-33
7.817776887e-33
7.982912814e-33
8.154239044e-33
8.331921443e-33
8.516127353e-33
8.707025485e-33
8.90478583e-33
9.109579549e-33
9.321578879e-33
9.540957028e-33
9.767888075e-33
1.000254687e-32
1.024510892e-32
1.049575033e-32
1.075464764e-32
1.102197782e-32
1.129791809e-32
1.15826459e-32
1.187633881e-32
1.217917442e-32
1.249133035e-32
1.281298408e-32
1.314431297e-32
1.348549422e-32
1.383670476e-32
1.41981213e-32
1.456992025e-32
1.495227777e-32
1.534536976e-32
1.574937184e-32
1.616445947e-32
1.659080793e-32
1.702859242e-32
1.747798816e-32
1.793917048e-32
1.841231496e-32
1.889759757e-32
1.939519486e-32
1.990528416e-32
2.042804377e-32
2.096365325e-32
2.151229371e-32
2.207414807e-32
2.264940145e-32
2.323824153e-32
2.384085896e-32
2.44574478e-32
2.508820605e-32
2.573333612e-32
2.639304543e-32
2.706754702e-32
2.775706023e-32
2.846181138e-32
2.918203454e-32
2.991797238e-32
3.066987699e-32
3.143801082e-32
3.222264773e-32
3.302407396e-32
3.384258932e-32
3.467850836e-32
3.553216161e-32
3.6403897e-32
3.729408121e-32
3.820310125e-32
3.913136601e-32
4.007930798e-32
4.104738506e-32
4.203608246e-32
4.304591468e-32
4.407742769e-32
4.513120111e-32
4.620785067e-32
4.730803067e-32
4.843243663e-32
4.958180815e-32
5.075693184e-32
5.195864447e-32
5.318783631e-32
5.444545463e-32
5.573250746e-32
5.705006751e-32
5.839927643e-32
5.978134924e-32
6.119757918e-32
6.264934284e-32
6.413810578e-32
6.566542864e-32
6.72329739e-32
6.884251338e-32
7.049593635e-32
7.219525827e-32
7.394262989e-32
7.574034696e-32
7.759086327e-32
7.949681201e-32
8.146101381e-32
8.34862669e-32
8.557556866e-32
8.773212709e-32
8.995924963e-32
9.226052505e-32
9.463979098e-32
9.710112823e-32
9.964888547e-32
1.022877068e-31
1.050225619e-31
1.078587743e-31
1.108020393e-31
1.13858434e-31
1.170344819e-31
1.203372537e-31
1.237740775e-31
1.273528828e-31
1.310822057e-31
1.349711981e-31
1.390294292e-31
1.43266968e-31
1.476945978e-31
1.52323876e-31
1.571671838e-31
1.622377889e-31
1.675499189e-31
1.731188425e-31
1.789609588e-31
1.850938965e-31
1.915366232e-31
1.983095676e-31
2.054347553e-31
2.129359609e-31
2.208388785e-31
2.291713128e-31
2.379633931e-31
2.472478155e-31
2.570601153e-31
2.674389743e-31
2.7842657e-31
2.9006897e-31
3.024165814e-31
3.15524662e-31
3.294539023e-31
3.442710921e-31
3.600498814e-31
3.768716542e-31
3.948265311e-31
4.140145223e-31
4.345468567e-31
4.565475157e-31
4.80155006e-31
5.055244136e-31
5.328297868e-31
5.622669066e-31
5.940565158e-31
6.284480893e-31
6.657242517e-31
7.062059673e-31
7.502586647e-31
7.982994964e-31
8.50805999e-31
9.083265013e-31
9.71492756e-31
1.041035457e-30
1.117803588e-30
1.202789008e-30
1.297158359e-30
1.402295544e-30
1.519859817e-30
1.651867538e-30
1.800810489e-30
1.96983174e-30
2.16299331e-30
2.38569202e-30
2.645316581e-30
2.952300189e-30
3.321824886e-30
3.776604302e-30
4.351456036e-30
5.100850936e-30
6.111422795e-30
7.522754661e-30
9.561988966e-30
1.260154449e-29
1.725547996e-29
2.454052433e-29
3.614535066e-29
5.488108406e-29
8.543531587e-29
1.356344684e-28
2.185577115e-28
3.560774648e-28
5.847899876e-28
9.65950493e-28
1.602117963e-27
2.66504253e-27
4.442390834e-27
7.416036396e-27
1.239324062e-26
2.072645751e-26
3.468163572e-26
5.805533921e-26
9.720877775e-26
1.628003844e-25
2.726888159e-25
4.567969802e-25
7.652616923e-25
1.282088211e-24
2.148027788e-24
3.598907606e-24
6.029849836e-24
1.010286597e-23
1.692712402e-23
2.836097823e-23
4.751801701e-23
7.961496932e-23
1.333924734e-22
2.234958856e-22
3.744651429e-22
6.274217667e-22
1.051277516e-21
1.761524662e-21
2.951741058e-21
4.946423301e-21
8.289605101e-21
1.389353482e-20
2.328818456e-20
3.904010512e-20
6.545581568e-20
1.097634967e-19
1.840991468e-19
3.088466056e-19
5.18257636e-19
8.699149104e-19
1.460677876e-18
2.453576411e-18
4.123214058e-18
6.932507344e-18
1.166255597e-17
1.963274969e-17
3.307442164e-17
5.576632386e-17
9.411758357e-17
1.590173765e-16
2.690018731e-16
4.556909232e-16
7.731475882e-16
1.314039088e-15
2.237627968e-15
3.818406487e-15
6.530865742e-15
1.119770752e-14
1.924976379e-14
3.31831354e-14
5.736538436e-14
9.94608836e-14
1.72956511e-13
3.016455858e-13
5.275994147e-13
9.253495179e-13
1.627116902e-12
2.867644999e-12
5.063696242e-12
8.954547942e-12
1.584919469e-11
2.805891347e-11
4.964929345e-11
8.773808098e-11
1.547168433e-10
2.720206494e-10
4.764644182e-10
8.307879798e-10
1.441023222e-09
2.484788015e-09
4.256867603e-09
7.241800986e-09
1.222810939e-08
2.048587496e-08
3.40393541e-08
5.608000438e-08
9.158403855e-08
1.482237531e-07
2.376447909e-07
3.776034567e-07
5.93814519e-07
9.267757004e-07
1.433461631e-06
2.195966076e-06
3.29592211e-06
4.883367376e-06
7.124427101e-06
1.020529101e-05
1.430974074e-05
1.958820184e-05
2.612794671e-05
3.394974645e-05
4.299931358e-05
5.315330293e-05
6.420214493e-05
7.605118193e-05
8.771179389e-05
9.866773596e-05
0.0001079714185
0.0001146305872
0.0001174194077
0.0001157749447
0.0001097340605
0.0001002758394
8.865828173e-05
7.623506881e-05
6.41413319e-05
5.309919696e-05
4.343437302e-05
3.520327795e-05
2.829723311e-05
2.261556259e-05
1.794264591e-05
1.416911528e-05
1.112756664e-05
8.693555057e-06
6.759834253e-06
5.234485076e-06
4.031107997e-06
3.083499133e-06
2.34940532e-06
1.783992557e-06
1.350609297e-06
1.019903786e-06
7.685249718e-07
5.780374616e-07
4.339790628e-07
3.253243798e-07
2.44646843e-07
1.83832822e-07
1.37678787e-07
1.030877056e-07
7.716395352e-08
5.77369911e-08
4.318151319e-08
3.227965785e-08
2.4121838e-08
1.801517337e-08
1.344855508e-08
1.003535762e-08
7.48550636e-09
5.581501246e-09
4.160368623e-09
3.100072893e-09
2.30929086e-09
1.719722604e-09
1.280314813e-09
9.529247512e-10
7.090684566e-10
5.274838844e-10
3.923060668e-10
2.91701477e-10
2.168466364e-10
1.611645979e-10
1.197544724e-10
8.896537929e-11
6.607839027e-11
4.906918119e-11
3.643097678e-11
2.704251625e-11
2.00696235e-11
1.489185166e-11
1.104783017e-11
8.1945576e-12
6.077089921e-12
4.505975305e-12
3.340460134e-12
2.475993218e-12
1.83493041e-12
1.359621566e-12
1.007270447e-12
7.461137411e-13
5.525812951e-13
4.091860433e-13
3.029564702e-13
2.24272353e-13
1.660002103e-13
1.22851436e-13
9.090585425e-14
6.72581327e-14
4.975542367e-14
3.680273214e-14
2.721855416e-14
2.012782103e-14
1.488252303e-14
1.100286637e-14
8.133659425e-15
6.011992198e-15
4.443288739e-15
3.283566415e-15
2.426295368e-15
1.792666896e-15
1.324387528e-15
9.783440896e-16
7.226545738e-16
5.337452462e-16
3.941876275e-16
2.910980238e-16
2.149534633e-16
1.587158169e-16
1.171839749e-16
8.651476128e-17
6.386867853e-17
4.714798906e-17
3.480308887e-17
2.568938327e-17
1.896150457e-17
1.399513732e-17
1.032925224e-17
7.623424992e-18
5.626303861e-18
4.152316193e-18
3.064462624e-18
2.261609129e-18
1.669101918e-18
1.231836878e-18
9.091420063e-19
6.709988586e-19
4.952528361e-19
3.655536856e-19
2.698351674e-19
1.991928066e-19
1.4705554e-19
1.085743232e-19
8.017089483e-20
5.92047575e-20
4.372741451e-20
3.230100639e-20
2.386447591e-20
1.763480881e-20
1.303415906e-20
9.636075282e-21
7.125822301e-21
5.271103248e-21
3.90045618e-21
2.887313389e-21
2.138238991e-21
1.584249471e-21
1.17440898e-21
8.7110308e-22
6.465509333e-22
4.802313113e-22
3.569828972e-22
2.656021522e-22
1.978083528e-22
1.474795825e-22
1.100886927e-22
8.228684588e-23
6.159598997e-23
4.618173959e-23
3.468561584e-23
2.610110924e-23
1.968210086e-23
1.487517899e-23
1.126960423e-23
8.560311868e-24
6.520545935e-24
4.981611167e-24
3.817886015e-24
2.935725177e-24
2.265238648e-24
1.754198514e-24
1.363520378e-24
1.063910415e-24
8.333757199e-25
6.553742509e-25
5.174389491e-25
4.101534852e-25
3.263891128e-25
2.607353896e-25
2.090749039e-25
1.682653332e-25
1.35901208e-25
1.101352891e-25
8.954424161e-26
7.302756692e-26
5.973129109e-26
4.899028275e-26
4.028456008e-26
3.320602918e-26
2.743319508e-26
2.271180196e-26
1.883998928e-26
1.565689791e-26
1.303386745e-26
1.086761438e-26
9.07494107e-27
7.588601963e-27
6.35408167e-27
5.327033128e-27
4.471281004e-27
3.757247704e-27
3.160671148e-27
2.661615116e-27
2.243654846e-27
1.893228445e-27
1.599118927e-27
1.352031954e-27
1.14425533e-27
9.69378078e-28
8.220649315e-28
6.978643972e-28
5.930634931e-28
5.045593464e-28
4.297551851e-28
3.664812274e-28
3.129164478e-28
2.675325813e-28
2.290481789e-28
1.963845984e-28
1.686379634e-28
1.450448184e-28
1.249649412e-28
1.07857207e-28
9.326863177e-29
8.081610386e-29
7.017118567e-29
6.106014401e-29
5.32519271e-29
4.655102779e-29
4.07925003e-29
3.583740644e-29
3.156632053e-29
2.787867316e-29
2.468938593e-29
2.192524034e-29
1.952486575e-29
1.743625681e-29
1.561551079e-29
1.402322315e-29
1.262896921e-29
1.140570803e-29
1.032890453e-29
9.379227296e-30
8.539217676e-30
7.793516794e-30
7.130364106e-30
6.540080257e-30
6.011539104e-30
5.537862749e-30
5.111109558e-30
4.727638001e-30
4.380518775e-30
4.065632201e-30
3.780015622e-30
3.519365977e-30
3.281286468e-30
3.064151409e-30
2.864983505e-30
2.681893499e-30
2.512291316e-30
2.355779288e-30
2.211450724e-30
2.078146471e-30
1.95495102e-30
1.840753152e-30
1.734255038e-30
1.635030507e-30
1.542590939e-30
1.456230278e-30
1.374794599e-30
1.298516156e-30
1.227365473e-30
1.160280295e-30
1.097895501e-30
1.039802439e-30
9.846228464e-31
9.320739559e-31
8.826646655e-31
8.36583476e-31
7.93238965e-31
7.524427438e-31
7.13698252e-31
6.777763175e-31
6.443389985e-31
6.120835733e-31
5.805370999e-31
5.512123344e-31
5.230664726e-31
4.965721103e-31
4.715624272e-31
4.485983819e-31
4.269118122e-31
4.06258376e-31
3.867374765e-31
3.683544312e-31
3.507588795e-31
3.340090132e-31
3.179437722e-31
3.027954354e-31
2.889461215e-31
2.752330838e-31
2.623500582e-31
2.501574774e-31
2.384836241e-31
2.275679747e-31
2.165690524e-31
2.058889286e-31
1.958777286e-31
1.867134176e-31
1.778996604e-31
1.697590686e-31
1.620314291e-31
1.547093725e-31
1.480791791e-31
1.417887821e-31
1.358628558e-31
1.298649113e-31
1.242376984e-31
1.186939474e-31
1.134398879e-31
1.087462237e-31
1.043800361e-31
9.965341263e-32
9.520390388e-32
9.097979887e-32
8.704265531e-32
8.350732328e-32
8.018150936e-32
7.6907014e-32
7.363702825e-32
7.056075976e-32
6.80583861e-32
6.536264324e-32
6.292091712e-32
6.033742874e-32
5.756859913e-32
5.504244622e-32
5.261740791e-32
5.071523439e-32
4.874557159e-32
4.680094236e-32
4.468091926e-32
4.247512785e-32
4.061773344e-32
3.921060113e-32
3.770925258e-32
3.638811199e-32
3.487767707e-32
3.358364343e-32
3.257553024e-32
3.134442281e-32
3.018990072e-32
2.930304675e-32
2.839965351e-32
2.738569945e-32
2.637139807e-32
2.505027497e-32
2.389671517e-32
2.283262043e-32
2.194421708e-32
2.121762932e-32
2.071767819e-32
1.990782178e-32
1.909833242e-32
1.821157349e-32
1.749274198e-32
1.684145626e-32
1.632840554e-32
1.587533193e-32
1.548962629e-32
1.511111409e-32
1.485421978e-32
1.449521311e-32
1.385288766e-32
1.329458909e-32
1.263524182e-32
1.226963733e-32
1.215056321e-32
1.204617045e-32
1.179933789e-32
1.156682308e-32
1.122360029e-32
1.077152031e-32
1.023133599e-32
9.830911036e-33
9.314518162e-33
9.035596365e-33
8.679587532e-33
8.767289741e-33
8.645465653e-33
8.400445298e-33
8.072536999e-33
7.699632891e-33
7.37126052e-33
6.971841512e-33
6.771319763e-33
6.514848999e-33
6.261708667e-33
6.20936454e-33
5.890225439e-33
5.735600203e-33
5.738434984e-33
5.516185518e-33
5.438074216e-33
5.19817656e-33
4.929640066e-33
4.670741859e-33
4.450010001e-33
4.270189608e-33
4.026426889e-33
3.898572704e-33
3.705401805e-33
3.479109499e-33
3.489092813e-33
3.504688082e-33
3.3762585e-33
3.302465398e-33
3.138879416e-33
3.108640271e-33
2.959135835e-33
2.820573876e-33
2.817279405e-33
2.859667918e-33
2.766184909e-33
2.663842936e-33
2.366284681e-33
2.2452579e-33
2.080159472e-33
2.080377096e-33
1.989006092e-33
1.990900721e-33
2.176455433e-33
2.202136202e-33
2.156309071e-33
1.998704337e-33
1.892689432e-33
1.899549579e-33
1.941329754e-33
1.88559458e-33
1.755992531e-33
1.709509034e-33
1.61072351e-33
1.657897936e-33
1.703159133e-33
1.770480012e-33
1.732184026e-33
1.624671009e-33
1.53390763e-33
1.565485167e-33
1.614336376e-33
1.587893946e-33
1.49497295e-33
1.422142589e-33
1.434453986e-33
1.446133194e-33
1.471192373e-33
1.396012029e-33
1.165293963e-33
9.889585843e-34
8.775335102e-34
8.394282602e-34
8.871402653e-34
8.797099919e-34
8.396190007e-34
7.741269908e-34
8.264878053e-34
8.549992016e-34
9.474640575e-34
9.079326055e-34
8.607698342e-34
8.235872891e-34
7.712661823e-34
6.762926646e-34
6.149568919e-34
5.755585893e-34
5.312464545e-34
5.325840405e-34
5.49283466e-34
5.842525308e-34
6.384097126e-34
6.279476492e-34
6.094615691e-34
6.697469196e-34
6.742498263e-34
6.757491953e-34
6.778193789e-34
6.183227688e-34
6.171861653e-34
5.570295949e-34
4.784772313e-34
4.528905312e-34
4.623350148e-34
4.403867953e-34
4.053400857e-34
4.156666104e-34
4.758705464e-34
4.308338235e-34
4.377835524e-34
4.809453739e-34
4.552176863e-34
3.944107709e-34
3.426787049e-34
3.363449292e-34
3.021307504e-34
3.03796342e-34
3.417091066e-34
4.249899486e-34
4.466346674e-34
5.026868247e-34
5.571851424e-34
5.441478474e-34
4.871067591e-34
4.480875373e-34
4.677196058e-34
3.979147922e-34
3.772484072e-34
3.018737668e-34
2.58571817e-34
2.44899416e-34
2.206733044e-34
1.823295493e-34
1.682538536e-34
1.770412336e-34
2.085024025e-34
2.006422333e-34
1.838245046e-34
1.823808927e-34
2.009472765e-34
2.482256133e-34
2.78605386e-34
2.297562948e-34
2.130449196e-34
2.15687504e-34
2.365661569e-34
2.917176606e-34
3.635208716e-34
3.133538006e-34
3.082671181e-34
2.939585807e-34
3.214755319e-34
2.413721124e-34
1.511921909e-34
3.581916415e-36
0
8.757211325e-36
0
2.506485958e-34
2.513962916e-34
3.054403588e-35
5.916387385e-36
1.655536387e-34
6.275494537e-35
1.877302537e-35
2.193570674e-35
6.447548266e-35
4.260400973e-35
1.650842643e-35
2.097481899e-36
3.515431511e-35
7.28396497e-35
1.511438019e-35
7.808504445e-36
1.74740328e-36
1.047638505e-35
1.397529873e-36
5.86127504e-36
4.139949629e-36
2.062014511e-36
1.622759577e-36
3.478820665e-36
1.702148672e-37
1.957237552e-36
3.755177533e-37
3.40080905e-36
9.526043231e-36
6.260051027e-36
1.003391379e-36
3.166173662e-37
9.01909466e-37
8.002725296e-38
1.909378966e-36
2.069330219e-36
5.015651775e-37
7.326225155e-37
4.509284608e-36
0
0
6.821753832e-36
0
4.023901805e-38
0
1.529106708e-36
9.044405583e-38
2.940792225e-36
4.433522679e-36
2.330398623e-36
0
1.046125969e-35
7.515878162e-36
2.694858402e-37
1.185652903e-36
6.835538548e-38
2.099244648e-36
3.369264908e-37
7.004007126e-37
4.017918324e-38
4.916641373e-37
3.24097598e-38
1.75888184e-38
0
0
0
1.140311407e-36
4.469185673e-37
9.942885744e-37
0
2.819514739e-36
1.050122144e-36
1.695262936e-36
3.739537806e-38
1.344716743e-36
0
0
2.6125629e-36
1.650509417e-36
2.157913213e-37
1.030611505e-38
0
0
0
5.269741071e-37
3.326780533e-39
1.272212e-37
3.14625558e-39
2.799887574e-38
1.200139673e-39
0
1.308749336e-38
3.019945094e-40
9.554828632e-38
1.17621799e-39
1.036901204e-38
5.959731645e-38
1.831028315e-39
5.951859098e-39
5.795306234e-39
1.422345914e-38
1.818988338e-38
1.148659673e-37
1.391671981e-39
2.395262197e-38
2.291122559e-38
8.306989144e-40
4.912239754e-38
9.650065144e-40
5.707995259e-40
9.341992123e-39
9.210368865e-40
1.8921083e-38
8.477145767e-39
8.19227497e-39
7.336527959e-39
1.749849042e-39
0
0
9.654867199e-40
0
1.475414404e-38
6.85194953e-41
0
5.105301783e-40
4.174840931e-40
2.721307123e-38
7.222166899e-40
5.342610931e-38
3.30924302e-38
1.176027892e-38
1.509558374e-38
1.153149041e-37
1.401317665e-38
2.405257365e-38
1.907928389e-39
1.745456666e-38
1.913496877e-38
2.695317126e-38
7.85915275e-39
0
1.697872014e-37
2.577528255e-38
2.433674693e-38
4.798341124e-38
0
0
4.921786077e-39
0
2.188095911e-38
0
6.256172953e-38
7.169966386e-38
5.335971914e-38
1.1536266e-37
2.145142573e-38
7.474009936e-38
1.713460248e-37
2.028611878e-38
2.475765557e-38
7.340642015e-40
0
0
1.184567285e-37
1.146230258e-38
1.380292074e-38
1.018540775e-39
0
0
1.826471074e-38
6.538469513e-38
2.812368222e-38
8.152207292e-38
6.060947254e-38
1.251436758e-37
7.587608045e-38
5.485119299e-38
4.375356581e-38
1.709457659e-37
0
3.700043914e-38
0
4.666406217e-38
0
8.554018783e-38
1.220378058e-37
4.570051045e-39
8.474622478e-38
6.533872284e-38
1.440354373e-38
2.959075535e-39
3.734939572e-38
2.677597708e-38
1.313562627e-38
0
2.129217803e-38
3.574709775e-38
1.243636634e-38
0
4.427197705e-39
0
5.825456238e-38
1.153032065e-38
0
9.044816478e-39
6.527796518e-38
0
0
0
8.162332042e-38
7.160851062e-40
2.159995923e-38
1.488562975e-40
5.330984823e-41
2.093907412e-38
0
2.25024779e-41
5.552724174e-39
1.89612196e-39
1.378289548e-40
9.494467298e-39
8.363773932e-39
9.521859043e-39
2.304958545e-39
1.124037855e-39
5.110912369e-40
4.626932984e-40
2.155498974e-38
0
2.233386299e-38
5.248173499e-39
9.88289597e-41
0
0
2.077852582e-39
0
7.836102326e-40
0
0
2.246451405e-40
0
2.377161187e-38
2.236455367e-41
0
)
;

boundaryField
{
    inlet
    {
        type            fixedValue;
        value           uniform 0;
    }
    outlet
    {
        type            zeroGradient;
    }
    wall
    {
        type            empty;
    }
}


// ************************************************************************* //
