/*--------------------------------*- C++ -*----------------------------------*\
  =========                 |
  \\      /  F ield         | OpenFOAM: The Open Source CFD Toolbox
   \\    /   O peration     | Website:  https://openfoam.org
    \\  /    A nd           | Version:  7
     \\/     M anipulation  |
\*---------------------------------------------------------------------------*/
FoamFile
{
    version     2.0;
    format      ascii;
    class       volScalarField;
    location    "0.000558243009";
    object      C4H7;
}
// * * * * * * * * * * * * * * * * * * * * * * * * * * * * * * * * * * * * * //

dimensions      [0 0 0 0 0 0 0];

internalField   nonuniform List<scalar> 
1500
(
4.976843076e-34
1.724990975e-33
2.956588281e-33
3.67561537e-33
3.969055746e-33
4.062298695e-33
4.085811769e-33
4.089695284e-33
4.089217521e-33
4.088126779e-33
4.087033017e-33
4.085915017e-33
4.084749393e-33
4.083583411e-33
4.08249259e-33
4.081536801e-33
4.080743103e-33
4.08010882e-33
4.079613577e-33
4.079231781e-33
4.078941058e-33
4.078725662e-33
4.07857591e-33
4.078485518e-33
4.078448635e-33
4.07845776e-33
4.078503003e-33
4.078572567e-33
4.078653961e-33
4.078735406e-33
4.078807009e-33
4.078861442e-33
4.078894111e-33
4.078902909e-33
4.078887741e-33
4.078849989e-33
4.07879203e-33
4.078716865e-33
4.078627852e-33
4.078528538e-33
4.078422538e-33
4.078313414e-33
4.078204533e-33
4.078098922e-33
4.077999111e-33
4.07790702e-33
4.07782389e-33
4.077750285e-33
4.077686155e-33
4.077630948e-33
4.077583761e-33
4.077543493e-33
4.077508998e-33
4.07747921e-33
4.077453238e-33
4.077430425e-33
4.077410379e-33
4.077392971e-33
4.077378317e-33
4.077366738e-33
4.077358723e-33
4.077354876e-33
4.07735587e-33
4.077362401e-33
4.077375141e-33
4.077394687e-33
4.077421523e-33
4.077455973e-33
4.077498169e-33
4.077548021e-33
4.077605198e-33
4.077669119e-33
4.077738953e-33
4.077813633e-33
4.077891882e-33
4.07797225e-33
4.07805315e-33
4.078132914e-33
4.078209836e-33
4.07828223e-33
4.078348475e-33
4.078407064e-33
4.078456642e-33
4.078496048e-33
4.078524335e-33
4.078540798e-33
4.078544985e-33
4.078536701e-33
4.07851601e-33
4.078483227e-33
4.078438911e-33
4.078383847e-33
4.078319029e-33
4.078245633e-33
4.078164991e-33
4.078078555e-33
4.077987865e-33
4.077894506e-33
4.07780007e-33
4.07770611e-33
4.077614104e-33
4.077525409e-33
4.077441227e-33
4.077362571e-33
4.077290243e-33
4.077224811e-33
4.077166605e-33
4.077115718e-33
4.077072016e-33
4.077035163e-33
4.077004647e-33
4.076979823e-33
4.076959949e-33
4.076944234e-33
4.076931879e-33
4.07692212e-33
4.076914264e-33
4.076907713e-33
4.076901991e-33
4.076896749e-33
4.076891769e-33
4.076886956e-33
4.076882326e-33
4.076877984e-33
4.076874104e-33
4.0768709e-33
4.076868606e-33
4.076867456e-33
4.076867663e-33
4.076869412e-33
4.076872849e-33
4.076878086e-33
4.0768852e-33
4.076894244e-33
4.076905259e-33
4.076918282e-33
4.076933362e-33
4.076950567e-33
4.076969993e-33
4.076991768e-33
4.077016049e-33
4.077043018e-33
4.077072876e-33
4.077105825e-33
4.077142057e-33
4.077181735e-33
4.077224982e-33
4.077271857e-33
4.077322348e-33
4.077376361e-33
4.077433711e-33
4.077494123e-33
4.077557233e-33
4.077622592e-33
4.077689683e-33
4.077757926e-33
4.0778267e-33
4.077895355e-33
4.077963231e-33
4.078029671e-33
4.078094036e-33
4.078155713e-33
4.078214127e-33
4.078268741e-33
4.078319057e-33
4.078364619e-33
4.078405004e-33
4.078439824e-33
4.078468717e-33
4.078491346e-33
4.078507399e-33
4.078516589e-33
4.078518658e-33
4.078513385e-33
4.078500598e-33
4.078480182e-33
4.078452099e-33
4.078416399e-33
4.078373242e-33
4.07832291e-33
4.078265832e-33
4.078202592e-33
4.07813395e-33
4.07806085e-33
4.077984425e-33
4.077905997e-33
4.077827062e-33
4.077749265e-33
4.077674361e-33
4.077604163e-33
4.077540472e-33
4.077485003e-33
4.077439304e-33
4.077404681e-33
4.077382133e-33
4.077372308e-33
4.077375493e-33
4.077391626e-33
4.077420352e-33
4.077461101e-33
4.077513185e-33
4.077575892e-33
4.07764857e-33
4.077730668e-33
4.077821726e-33
4.077921301e-33
4.078028824e-33
4.078143414e-33
4.078263653e-33
4.078387381e-33
4.078511547e-33
4.078632159e-33
4.07874441e-33
4.078842972e-33
4.078922511e-33
4.078978382e-33
4.079007468e-33
4.079009078e-33
4.07898578e-33
4.078944053e-33
4.078894598e-33
4.078852181e-33
4.078834916e-33
4.078862928e-33
4.078956433e-33
4.079133329e-33
4.079406491e-33
4.079781056e-33
4.080252014e-33
4.080802491e-33
4.081403087e-33
4.082012596e-33
4.082580331e-33
4.083050137e-33
4.083366001e-33
4.083478946e-33
4.083354693e-33
4.082981367e-33
4.082376397e-33
4.081591642e-33
4.080715855e-33
4.079873685e-33
4.079220818e-33
4.078935195e-33
4.079205146e-33
4.080215131e-33
4.082128782e-33
4.085056934e-33
4.088966198e-33
4.09336491e-33
4.094740903e-33
4.095174982e-33
4.0956053e-33
4.096034466e-33
4.096464249e-33
4.096895958e-33
4.097330612e-33
4.097769012e-33
4.098211796e-33
4.098659467e-33
4.099112423e-33
4.099570981e-33
4.100035399e-33
4.100505891e-33
4.10098264e-33
4.101465808e-33
4.101955543e-33
4.102451985e-33
4.10295527e-33
4.103465531e-33
4.103982904e-33
4.104507528e-33
4.105039548e-33
4.105579113e-33
4.106126385e-33
4.106681531e-33
4.107244731e-33
4.107816176e-33
4.10839607e-33
4.10898463e-33
4.10958209e-33
4.110188699e-33
4.110804723e-33
4.111430447e-33
4.112066176e-33
4.112712238e-33
4.113368981e-33
4.11403678e-33
4.114716035e-33
4.115407174e-33
4.116110656e-33
4.116826971e-33
4.117556642e-33
4.118300231e-33
4.119058337e-33
4.119831601e-33
4.120620706e-33
4.121426387e-33
4.122249424e-33
4.123090653e-33
4.123950968e-33
4.124831321e-33
4.125732731e-33
4.126656286e-33
4.127603147e-33
4.128574552e-33
4.129571824e-33
4.130596375e-33
4.131649711e-33
4.132733437e-33
4.133849267e-33
4.134999028e-33
4.136184668e-33
4.137408262e-33
4.138672023e-33
4.13997831e-33
4.141329633e-33
4.142728669e-33
4.144178265e-33
4.145681454e-33
4.147241464e-33
4.148861731e-33
4.150545907e-33
4.152297881e-33
4.154121782e-33
4.156022006e-33
4.158003219e-33
4.160070381e-33
4.162228759e-33
4.164483946e-33
4.166841878e-33
4.169308855e-33
4.171891557e-33
4.17459707e-33
4.177432905e-33
4.18040702e-33
4.183527846e-33
4.18680431e-33
4.190245862e-33
4.1938625e-33
4.1976648e-33
4.201663944e-33
4.205871747e-33
4.210300694e-33
4.214963967e-33
4.219875481e-33
4.225049917e-33
4.230502757e-33
4.236250322e-33
4.24230981e-33
4.248699332e-33
4.255437953e-33
4.262545737e-33
4.270043781e-33
4.277954264e-33
4.28630049e-33
4.29510693e-33
4.304399272e-33
4.314204463e-33
4.324550762e-33
4.335467782e-33
4.346986545e-33
4.359139527e-33
4.371960713e-33
4.385485641e-33
4.399751461e-33
4.414796981e-33
4.430662721e-33
4.447390966e-33
4.465025815e-33
4.483613236e-33
4.503201118e-33
4.52383932e-33
4.545579725e-33
4.568476288e-33
4.59258509e-33
4.617964384e-33
4.644674644e-33
4.672778615e-33
4.702341356e-33
4.733430286e-33
4.766115227e-33
4.800468448e-33
4.836564699e-33
4.874481258e-33
4.914297957e-33
4.956097222e-33
4.999964101e-33
5.045986295e-33
5.09425418e-33
5.144860832e-33
5.197902047e-33
5.253476356e-33
5.311685038e-33
5.372632131e-33
5.436424438e-33
5.503171525e-33
5.572985726e-33
5.645982133e-33
5.722278586e-33
5.801995661e-33
5.885256651e-33
5.972187544e-33
6.062916995e-33
6.157576297e-33
6.256299342e-33
6.359222585e-33
6.466484996e-33
6.578228014e-33
6.694595489e-33
6.815733632e-33
6.941790947e-33
7.072918165e-33
7.20926818e-33
7.350995968e-33
7.498258513e-33
7.651214727e-33
7.810025362e-33
7.974852926e-33
8.145861591e-33
8.323217099e-33
8.507086667e-33
8.697638893e-33
8.895043651e-33
9.099471998e-33
9.311096066e-33
9.530088966e-33
9.756624683e-33
9.990877977e-33
1.023302428e-32
1.048323961e-32
1.074170046e-32
1.10085837e-32
1.128406651e-32
1.156832627e-32
1.18615405e-32
1.216388676e-32
1.247554261e-32
1.279668551e-32
1.31274928e-32
1.346814161e-32
1.381880889e-32
1.417967129e-32
1.455090524e-32
1.493268687e-32
1.532519205e-32
1.572859642e-32
1.614307539e-32
1.656880426e-32
1.700595821e-32
1.745471244e-32
1.791524228e-32
1.838772327e-32
1.887233138e-32
1.936924311e-32
1.987863576e-32
2.04006876e-32
2.093557814e-32
2.148348841e-32
2.204460127e-32
2.261910175e-32
2.320717743e-32
2.380901884e-32
2.442481991e-32
2.505477847e-32
2.569909676e-32
2.635798198e-32
2.703164697e-32
2.772031077e-32
2.842419944e-32
2.914354671e-32
2.987859487e-32
3.062959562e-32
3.139681098e-32
3.218051428e-32
3.298099124e-32
3.379854105e-32
3.463347761e-32
3.548613074e-32
3.635684758e-32
3.724599397e-32
3.815395597e-32
3.908114146e-32
4.002798187e-32
4.099493389e-32
4.198248145e-32
4.299113768e-32
4.402144705e-32
4.50739876e-32
4.614937332e-32
4.724825664e-32
4.837133112e-32
4.951933421e-32
5.069305023e-32
5.18933135e-32
5.312101165e-32
5.437708917e-32
5.566255105e-32
5.697846683e-32
5.83259747e-32
5.970628602e-32
6.112069013e-32
6.257055942e-32
6.405735499e-32
6.558263266e-32
6.714804974e-32
6.875537239e-32
7.040648363e-32
7.210339198e-32
7.384824052e-32
7.564331692e-32
7.749106624e-32
7.939410638e-32
8.135521761e-32
8.337722555e-32
8.546312336e-32
8.761609662e-32
8.983947257e-32
9.213682652e-32
9.45119828e-32
9.696901365e-32
9.951225892e-32
1.021463523e-31
1.048762502e-31
1.077072583e-31
1.106450517e-31
1.136956932e-31
1.168656876e-31
1.201620342e-31
1.235920825e-31
1.2716373e-31
1.308854676e-31
1.347663744e-31
1.388159987e-31
1.430444117e-31
1.474623698e-31
1.520813938e-31
1.569138256e-31
1.619728919e-31
1.672727758e-31
1.728286981e-31
1.786570061e-31
1.847752724e-31
1.912024041e-31
1.979587644e-31
2.050663083e-31
2.125487339e-31
2.204316523e-31
2.28742778e-31
2.375121425e-31
2.467723355e-31
2.565587758e-31
2.669100187e-31
2.778681025e-31
2.894789431e-31
3.017927805e-31
3.148646888e-31
3.287551564e-31
3.435307493e-31
3.592648707e-31
3.760386305e-31
3.939418447e-31
4.130741847e-31
4.335465012e-31
4.554823527e-31
4.79019772e-31
5.043133128e-31
5.315364239e-31
5.608842103e-31
5.925766498e-31
6.268623502e-31
6.640229506e-31
7.043782927e-31
7.48292522e-31
7.961813214e-31
8.485205379e-31
9.058565514e-31
9.688188567e-31
1.038135518e-30
1.114652441e-30
1.199357846e-30
1.293414039e-30
1.398199688e-30
1.515367631e-30
1.646926209e-30
1.795356951e-30
1.963789463e-30
2.156267563e-30
2.378162691e-30
2.636827071e-30
2.942639923e-30
3.310701376e-30
3.763598025e-30
4.335946948e-30
5.081898026e-30
6.087565727e-30
7.491685984e-30
9.520011024e-30
1.254266798e-29
1.716992568e-29
2.441223057e-29
3.594782367e-29
5.457048707e-29
8.49389559e-29
1.34831613e-28
2.172476244e-28
3.539261451e-28
5.812414312e-28
9.600788612e-28
1.592381346e-27
2.648872872e-27
4.415511148e-27
7.371324154e-27
1.231883608e-26
2.06026162e-26
3.447549244e-26
5.771220012e-26
9.663764189e-26
1.618498768e-25
2.711071923e-25
4.541656812e-25
7.608849827e-25
1.274809935e-24
2.135927207e-24
3.578794683e-24
5.996428041e-24
1.004734409e-23
1.683491533e-23
2.820788841e-23
4.726393141e-23
7.91934036e-23
1.326932855e-22
2.223366871e-22
3.725440467e-22
6.242393238e-22
1.046007813e-21
1.752802562e-21
2.937311189e-21
4.922561162e-21
8.250162678e-21
1.382836761e-20
2.318055971e-20
3.886243148e-20
6.516261036e-20
1.092798006e-19
1.833014455e-19
3.075314116e-19
5.160897605e-19
8.663423149e-19
1.454791541e-18
2.443879798e-18
4.107244054e-18
6.906211474e-18
1.161927017e-17
1.95615226e-17
3.295727207e-17
5.557376148e-17
9.380131161e-17
1.584984406e-16
2.681514863e-16
4.542995705e-16
7.708754748e-16
1.31033703e-15
2.231611666e-15
3.808657648e-15
6.515119349e-15
1.117236496e-14
1.920914936e-14
3.311840326e-14
5.726302862e-14
9.930101856e-14
1.727117205e-13
3.012826916e-13
5.270899097e-13
9.247012434e-13
1.626452411e-12
2.867375097e-12
5.064877202e-12
8.959579719e-12
1.586313759e-11
2.809191773e-11
4.972104342e-11
8.788594373e-11
1.550109546e-10
2.725921808e-10
4.775590471e-10
8.328674202e-10
1.444957438e-09
2.492215792e-09
4.27086321e-09
7.268084873e-09
1.227720252e-08
2.057685754e-08
3.420633012e-08
5.638320894e-08
9.212915666e-08
1.491959127e-07
2.393878654e-07
3.806587513e-07
5.992856193e-07
9.356526428e-07
1.446749576e-06
2.213824582e-06
3.324760152e-06
4.927196041e-06
7.187912825e-06
1.029376244e-05
1.442884138e-05
1.974335301e-05
2.632350893e-05
3.418643446e-05
4.327233075e-05
5.344922641e-05
6.450187277e-05
7.634398966e-05
8.796455687e-05
9.884623281e-05
0.0001080020038
0.0001144190931
0.0001168602871
0.0001148162786
0.0001084323441
9.872602652e-05
8.712973469e-05
7.488839182e-05
6.306252479e-05
5.229174488e-05
4.285711155e-05
3.481081446e-05
2.801584315e-05
2.243133393e-05
1.781979661e-05
1.408634747e-05
1.10706147e-05
8.653345821e-06
6.731250882e-06
5.215309273e-06
4.012046194e-06
3.065876096e-06
2.333758303e-06
1.770423036e-06
1.339047433e-06
1.010059124e-06
7.599837829e-07
5.7042467e-07
4.270319842e-07
3.189234393e-07
2.395031957e-07
1.797597502e-07
1.341811385e-07
1.001301532e-07
7.47046817e-08
5.572114178e-08
4.154731737e-08
3.096537232e-08
2.307807521e-08
1.71856506e-08
1.279169847e-08
9.516807008e-09
7.07723271e-09
5.260838258e-09
3.909097104e-09
2.903613545e-09
2.156018554e-09
1.600395982e-09
1.187607757e-09
8.810446422e-10
6.534467348e-10
4.845262723e-10
3.591916533e-10
2.662216107e-10
1.972760835e-10
1.461588408e-10
1.082680527e-10
8.018716005e-11
5.938037797e-11
4.396617998e-11
3.254886908e-11
2.40933919e-11
1.78323298e-11
1.319682123e-11
9.765274854e-12
7.225303477e-12
5.345478723e-12
3.95437856e-12
2.925048554e-12
2.163480764e-12
1.600073383e-12
1.183301231e-12
8.75025703e-13
6.470201273e-13
4.7839602e-13
3.536969453e-13
2.614870264e-13
1.933058882e-13
1.428950054e-13
1.056250429e-13
7.807201926e-14
5.7703653e-14
4.264727051e-14
3.151808439e-14
2.329215005e-14
1.721238472e-14
1.271905013e-14
9.398334922e-15
6.944327044e-15
5.130891198e-15
3.790872682e-15
2.80072001e-15
2.069115007e-15
1.528566518e-15
1.129195568e-15
8.341409439e-16
6.16162859e-16
4.55132412e-16
3.361758974e-16
2.483032233e-16
1.833941872e-16
1.354492759e-16
1.000359852e-16
7.387965312e-17
5.456109936e-17
4.02931997e-17
2.975579525e-17
2.197371028e-17
1.622662542e-17
1.198248991e-17
8.848326744e-18
6.533888948e-18
4.824810974e-18
3.562775105e-18
2.630860565e-18
1.942721404e-18
1.434592829e-18
1.059386956e-18
7.823319725e-19
5.777513569e-19
4.266851894e-19
3.151334324e-19
2.327585911e-19
1.719276544e-19
1.270046062e-19
9.382798785e-20
6.932511752e-20
5.122722902e-20
3.785913266e-20
2.798390652e-20
2.068822238e-20
1.529767613e-20
1.131427276e-20
8.370269413e-21
6.194096438e-21
4.585195988e-21
3.395444706e-21
2.515437542e-21
1.864360597e-21
1.382513759e-21
1.025789716e-21
7.615973518e-22
5.658515686e-22
4.207504636e-22
3.13133839e-22
2.332709417e-22
1.739651303e-22
1.298925646e-22
9.711370245e-23
7.271241056e-23
5.452932044e-23
4.096479043e-23
3.083328135e-23
2.325571127e-23
1.757986916e-23
1.332156007e-23
1.01210709e-23
7.710959525e-24
5.892214754e-24
4.516605249e-24
3.473606112e-24
2.680711158e-24
2.07625102e-24
1.614065828e-24
1.2595513e-24
9.867220272e-25
7.760288915e-25
6.127353613e-25
4.857086788e-25
3.865188882e-25
3.087666403e-25
2.475809789e-25
1.992437274e-25
1.609080511e-25
1.303873359e-25
1.059964622e-25
8.643227521e-26
7.068340342e-26
5.79620034e-26
4.765206411e-26
3.927009454e-26
3.243514457e-26
2.684591539e-26
2.226319123e-26
1.849633592e-26
1.53928694e-26
1.283039252e-26
1.07103081e-26
8.952930938e-27
7.493656912e-27
6.279947016e-27
5.268948366e-27
4.425618151e-27
3.721226516e-27
3.13216202e-27
2.638976091e-27
2.225616487e-27
1.878808999e-27
1.587557898e-27
1.342734268e-27
1.13675779e-27
9.633154593e-28
8.171508517e-28
6.938711982e-28
5.898110171e-28
5.019036881e-28
4.27585069e-28
3.647036093e-28
3.1145837e-28
2.663344671e-28
2.280616736e-28
1.95571865e-28
1.679687968e-28
1.444930681e-28
1.245104515e-28
1.074844968e-28
9.296161227e-29
8.056109899e-29
6.996048089e-29
6.088672433e-29
5.310917181e-29
4.643533023e-29
4.069829253e-29
3.576049387e-29
3.150197628e-29
2.78253327e-29
2.464456302e-29
2.188743679e-29
1.94938953e-29
1.741116763e-29
1.559539185e-29
1.400814397e-29
1.26168154e-29
1.139576945e-29
1.032019435e-29
9.372823754e-30
8.534857309e-30
7.790860287e-30
7.128634846e-30
6.537890206e-30
6.009738702e-30
5.536580942e-30
5.11208962e-30
4.728740049e-30
4.381878756e-30
4.066972089e-30
3.781484496e-30
3.521829529e-30
3.285056923e-30
3.067516339e-30
2.868168403e-30
2.68381194e-30
2.513887912e-30
2.357424637e-30
2.213947732e-30
2.08173221e-30
1.957638329e-30
1.843219148e-30
1.736755943e-30
1.637812592e-30
1.544971017e-30
1.457956513e-30
1.377105797e-30
1.30114631e-30
1.230305366e-30
1.163856251e-30
1.101365715e-30
1.042751497e-30
9.878758688e-31
9.354806147e-31
8.865560686e-31
8.403448453e-31
7.970523272e-31
7.563777547e-31
7.177368792e-31
6.806927523e-31
6.455971564e-31
6.123187995e-31
5.810350712e-31
5.513548403e-31
5.237846335e-31
4.976805872e-31
4.73176242e-31
4.502629583e-31
4.283008198e-31
4.077852405e-31
3.878889877e-31
3.689531619e-31
3.50959461e-31
3.344842713e-31
3.191497792e-31
3.041886189e-31
2.901302827e-31
2.766592238e-31
2.640712953e-31
2.519533898e-31
2.394303716e-31
2.281525378e-31
2.175640832e-31
2.073213883e-31
1.975985961e-31
1.879770865e-31
1.789916595e-31
1.708044836e-31
1.631765758e-31
1.556091808e-31
1.482196315e-31
1.412769988e-31
1.348444531e-31
1.289143089e-31
1.235591921e-31
1.188579904e-31
1.138135116e-31
1.094209222e-31
1.049599098e-31
1.00788856e-31
9.640737748e-32
9.227649436e-32
8.837455976e-32
8.44738517e-32
8.109857386e-32
7.754770336e-32
7.419366086e-32
7.089997652e-32
6.799903949e-32
6.50984835e-32
6.255857777e-32
6.000447717e-32
5.720138578e-32
5.476755674e-32
5.247540162e-32
5.029689574e-32
4.820967635e-32
4.598737185e-32
4.40061475e-32
4.210061162e-32
4.016830744e-32
3.851179634e-32
3.71925554e-32
3.571112753e-32
3.430676856e-32
3.285967683e-32
3.146651617e-32
3.029760352e-32
2.927859517e-32
2.832032593e-32
2.732009902e-32
2.634987853e-32
2.529252845e-32
2.437457835e-32
2.34948125e-32
2.270644475e-32
2.186773697e-32
2.11681587e-32
2.062016003e-32
2.000982551e-32
1.948560638e-32
1.87306112e-32
1.804594325e-32
1.749477609e-32
1.679934408e-32
1.627430902e-32
1.575256612e-32
1.504980167e-32
1.444117021e-32
1.39922525e-32
1.373300115e-32
1.331231008e-32
1.292615327e-32
1.239653817e-32
1.18951154e-32
1.12914401e-32
1.08500996e-32
1.068548714e-32
1.050277558e-32
1.031600061e-32
9.936817233e-33
9.651999981e-33
9.047192727e-33
8.641918704e-33
8.350932944e-33
8.0305751e-33
7.641693463e-33
7.328050927e-33
7.141747353e-33
6.896041081e-33
6.633413188e-33
6.454951591e-33
6.196418279e-33
5.99746588e-33
5.842345547e-33
5.632645172e-33
5.445995904e-33
5.334374957e-33
5.2995883e-33
5.241765893e-33
5.159002635e-33
4.937738137e-33
4.715560534e-33
4.53447674e-33
4.357352545e-33
4.172295475e-33
4.179546065e-33
4.056425891e-33
3.872794588e-33
3.531226915e-33
3.344907839e-33
3.246904444e-33
3.273814444e-33
3.163828836e-33
2.97182595e-33
2.736588505e-33
2.652619103e-33
2.511652293e-33
2.439973646e-33
2.413188657e-33
2.262306136e-33
2.192239277e-33
2.109119825e-33
2.047156847e-33
1.946222816e-33
1.874291519e-33
1.839182338e-33
1.703369741e-33
1.699072226e-33
1.659357712e-33
1.607645823e-33
1.499290349e-33
1.470243519e-33
1.536136216e-33
1.638208203e-33
1.588050254e-33
1.623403891e-33
1.702546618e-33
1.739274656e-33
1.664875947e-33
1.671480592e-33
1.603574046e-33
1.634743493e-33
1.671440676e-33
1.647361839e-33
1.659975882e-33
1.71034897e-33
1.661611843e-33
1.645498303e-33
1.544463596e-33
1.382471345e-33
1.264354773e-33
1.189473985e-33
1.093151811e-33
9.682549824e-34
9.198734568e-34
9.290733065e-34
9.077585481e-34
8.531003924e-34
8.705123677e-34
8.266152207e-34
7.684850654e-34
8.091875384e-34
8.184462202e-34
8.567834858e-34
8.58064106e-34
7.379515563e-34
6.724427774e-34
6.204401954e-34
5.370171496e-34
5.130898881e-34
5.29778817e-34
6.127338882e-34
6.102253487e-34
6.20792652e-34
5.889069604e-34
5.627458231e-34
4.999668249e-34
4.809644042e-34
5.267955965e-34
5.461093152e-34
5.414634771e-34
4.525849614e-34
4.10469558e-34
3.902722714e-34
4.124785659e-34
4.001482503e-34
4.418103522e-34
4.813319364e-34
5.279745382e-34
5.252706758e-34
5.43438583e-34
5.00707834e-34
4.57860497e-34
4.842594258e-34
4.710670036e-34
3.997030291e-34
3.795669264e-34
3.140730124e-34
2.889410424e-34
3.039283735e-34
3.335388124e-34
3.015716378e-34
3.139998633e-34
3.497993199e-34
3.900699434e-34
4.316348655e-34
3.853813619e-34
3.187028298e-34
2.860449622e-34
2.85978801e-34
2.494838359e-34
2.456024987e-34
2.758396978e-34
2.650759322e-34
2.942150456e-34
2.706461778e-34
2.25584809e-34
2.105667964e-34
1.88960298e-34
1.491769358e-34
1.300991542e-34
1.322117415e-34
1.417783772e-34
1.41112211e-34
1.322985588e-34
1.352885249e-34
1.263394252e-34
1.2845663e-34
1.167791889e-34
1.175084066e-34
1.327004463e-34
1.540669447e-34
1.635786982e-34
1.521876535e-34
1.539898229e-34
1.5025392e-34
2.43559496e-34
3.160027155e-35
3.528334055e-36
1.17617746e-36
1.590485784e-34
0
3.441617638e-35
9.894318232e-35
2.073568983e-34
1.595685521e-35
2.120799001e-34
1.353078504e-34
6.885341758e-35
0
9.247486114e-35
5.358754041e-35
0
6.39797097e-35
1.680655359e-35
5.225898061e-35
4.76848753e-35
4.593447995e-36
1.118542259e-37
1.674370895e-35
2.052305418e-35
1.036457735e-35
2.532831862e-36
1.296029421e-36
0
4.42969436e-37
3.700977826e-38
4.898195718e-37
1.306718559e-36
1.360782235e-36
4.030096368e-36
2.030359326e-36
0
1.848628364e-37
2.213024329e-36
9.646996773e-38
1.40012987e-36
0
1.157612803e-37
0
2.644492457e-36
6.080216532e-36
3.633860735e-37
8.918354389e-36
1.448453468e-37
7.924788893e-38
7.867028771e-36
0
8.119185681e-37
1.210229867e-36
1.617603029e-36
0
0
3.352370065e-36
2.242503079e-36
9.633907519e-38
0
2.810866612e-36
1.940725265e-36
0
0
0
1.846573785e-37
2.43372861e-39
9.677392953e-39
3.58899611e-37
6.720555653e-39
0
2.182367782e-37
1.533060315e-37
0
0
3.679612632e-36
2.675644945e-36
7.966944835e-37
3.833564602e-38
5.134480317e-37
4.136273627e-37
1.874606202e-36
7.47474153e-37
6.232395385e-37
0
2.930499623e-37
2.898845993e-37
6.139014579e-37
3.785724407e-37
1.704415018e-37
6.675775536e-39
5.289265079e-38
2.100550037e-39
2.607615623e-39
4.105769231e-40
0
0
3.675788547e-40
3.659596841e-38
2.34099856e-39
1.562990005e-37
3.79101116e-38
8.228274611e-38
1.162609316e-37
0
0
0
4.344162095e-38
1.67934124e-39
4.585547338e-38
6.576639587e-38
1.561935456e-39
3.201917347e-38
5.616757131e-38
2.537413354e-38
3.538622346e-38
1.297383264e-38
7.428461013e-39
8.690099665e-39
2.143013258e-38
3.686192232e-39
3.546390613e-38
6.674034702e-39
1.057521986e-38
1.600567581e-38
0
5.518344507e-39
1.463690591e-40
2.683225235e-39
3.749441445e-39
0
9.7735399e-39
5.323906405e-40
1.831296983e-38
1.005395246e-38
0
1.429395036e-38
3.811071076e-38
1.940401792e-38
0
4.132550038e-40
3.738318924e-38
1.060646752e-38
3.997160817e-39
0
0
6.534756356e-38
9.039141009e-38
3.474627879e-38
6.806125052e-38
2.45984297e-38
1.068265252e-38
0
3.549520236e-38
1.013864619e-39
4.118964506e-40
4.292197239e-39
2.521557283e-38
3.825717822e-38
6.907838109e-38
1.192123555e-37
3.011280639e-38
8.364337733e-38
2.328574906e-37
0
4.901202161e-38
0
2.500901035e-38
4.344172699e-38
0
0
0
7.073241335e-40
4.378466217e-38
0
9.7630289e-38
1.114523253e-38
5.483018037e-38
4.681898678e-38
2.187260792e-37
1.570007778e-37
1.845830272e-38
8.882934689e-38
1.103274831e-37
0
1.43106014e-38
1.194696889e-38
6.142912774e-38
2.125824703e-38
4.075892928e-38
3.835260801e-38
0
8.11304016e-38
1.104286416e-37
6.68419547e-39
6.71517042e-38
1.500663991e-38
2.239367057e-38
0
0
0
1.106784236e-38
0
0
0
4.078369673e-38
2.213252895e-38
1.767449044e-39
0
2.993444771e-39
2.395048129e-38
1.139850549e-38
0
0
3.111797982e-38
4.819515513e-40
1.343926195e-38
1.666367616e-40
1.169189749e-38
8.212985377e-39
4.909796953e-41
0
2.091895013e-39
0
2.704053851e-40
3.694235266e-39
1.084221097e-38
0
0
1.308583266e-38
6.646813458e-39
3.831394409e-39
8.382810783e-39
9.644100431e-40
2.299885185e-38
0
1.861179811e-38
0
5.209891913e-40
3.400226483e-40
6.443200935e-42
1.286461593e-40
1.543305763e-40
0
3.985975088e-42
8.443180279e-40
0
3.914709662e-40
0
)
;

boundaryField
{
    inlet
    {
        type            fixedValue;
        value           uniform 0;
    }
    outlet
    {
        type            zeroGradient;
    }
    wall
    {
        type            empty;
    }
}


// ************************************************************************* //
