/*--------------------------------*- C++ -*----------------------------------*\
  =========                 |
  \\      /  F ield         | OpenFOAM: The Open Source CFD Toolbox
   \\    /   O peration     | Website:  https://openfoam.org
    \\  /    A nd           | Version:  7
     \\/     M anipulation  |
\*---------------------------------------------------------------------------*/
FoamFile
{
    version     2.0;
    format      ascii;
    class       volScalarField;
    location    "0.000558243009";
    object      C4H7O_0;
}
// * * * * * * * * * * * * * * * * * * * * * * * * * * * * * * * * * * * * * //

dimensions      [0 0 0 0 0 0 0];

internalField   nonuniform List<scalar> 
1500
(
4.364223181e-21
1.700216728e-20
3.500208131e-20
5.229306403e-20
6.496936189e-20
7.255900544e-20
7.641835683e-20
7.812619285e-20
7.879524833e-20
7.903046586e-20
7.910556536e-20
7.91276147e-20
7.913368944e-20
7.913534315e-20
7.913585309e-20
7.913607222e-20
7.913620643e-20
7.913630401e-20
7.913637836e-20
7.913643541e-20
7.913647892e-20
7.913651128e-20
7.913653391e-20
7.913654772e-20
7.913655356e-20
7.913655254e-20
7.913654615e-20
7.913653614e-20
7.913652438e-20
7.913651264e-20
7.913650237e-20
7.913649468e-20
7.913649024e-20
7.913648935e-20
7.913649203e-20
7.913649808e-20
7.913650716e-20
7.913651882e-20
7.913653257e-20
7.913654792e-20
7.913656433e-20
7.913658128e-20
7.91365983e-20
7.913661493e-20
7.913663082e-20
7.913664568e-20
7.913665932e-20
7.913667167e-20
7.913668273e-20
7.913669257e-20
7.913670132e-20
7.913670912e-20
7.913671614e-20
7.913672252e-20
7.913672836e-20
7.913673374e-20
7.913673871e-20
7.913674327e-20
7.913674737e-20
7.913675094e-20
7.913675391e-20
7.913675616e-20
7.913675758e-20
7.913675807e-20
7.913675751e-20
7.913675582e-20
7.913675293e-20
7.913674878e-20
7.913674337e-20
7.913673673e-20
7.913672891e-20
7.913672e-20
7.913671016e-20
7.913669954e-20
7.913668834e-20
7.91366768e-20
7.913666516e-20
7.913665367e-20
7.913664259e-20
7.913663217e-20
7.913662266e-20
7.913661427e-20
7.913660722e-20
7.913660167e-20
7.913659777e-20
7.913659561e-20
7.913659527e-20
7.913659677e-20
7.913660011e-20
7.913660526e-20
7.913661212e-20
7.91366206e-20
7.913663056e-20
7.913664183e-20
7.913665421e-20
7.913666751e-20
7.913668151e-20
7.913669597e-20
7.913671067e-20
7.913672538e-20
7.913673988e-20
7.913675397e-20
7.913676746e-20
7.913678021e-20
7.913679208e-20
7.913680297e-20
7.913681284e-20
7.913682164e-20
7.91368294e-20
7.913683613e-20
7.913684191e-20
7.913684682e-20
7.913685094e-20
7.91368544e-20
7.91368573e-20
7.913685974e-20
7.913686182e-20
7.913686363e-20
7.913686524e-20
7.91368667e-20
7.913686806e-20
7.913686933e-20
7.913687052e-20
7.913687162e-20
7.913687262e-20
7.913687351e-20
7.913687425e-20
7.913687483e-20
7.913687522e-20
7.913687542e-20
7.913687541e-20
7.913687517e-20
7.913687471e-20
7.913687402e-20
7.91368731e-20
7.913687194e-20
7.913687054e-20
7.913686889e-20
7.913686696e-20
7.913686474e-20
7.91368622e-20
7.91368593e-20
7.9136856e-20
7.913685228e-20
7.913684809e-20
7.91368434e-20
7.91368382e-20
7.913683245e-20
7.913682615e-20
7.913681931e-20
7.913681195e-20
7.91368041e-20
7.913679581e-20
7.913678713e-20
7.913677813e-20
7.913676888e-20
7.913675949e-20
7.913675003e-20
7.913674059e-20
7.913673128e-20
7.913672219e-20
7.91367134e-20
7.9136705e-20
7.913669707e-20
7.91366897e-20
7.913668295e-20
7.91366769e-20
7.913667161e-20
7.913666714e-20
7.913666356e-20
7.913666093e-20
7.913665929e-20
7.91366587e-20
7.91366592e-20
7.913666082e-20
7.913666361e-20
7.913666757e-20
7.913667271e-20
7.9136679e-20
7.913668642e-20
7.913669491e-20
7.913670438e-20
7.913671474e-20
7.913672584e-20
7.913673753e-20
7.913674961e-20
7.913676188e-20
7.91367741e-20
7.913678602e-20
7.913679738e-20
7.91368079e-20
7.913681734e-20
7.913682545e-20
7.9136832e-20
7.913683682e-20
7.913683977e-20
7.913684074e-20
7.91368397e-20
7.913683666e-20
7.913683169e-20
7.913682487e-20
7.913681633e-20
7.913680624e-20
7.913679474e-20
7.9136782e-20
7.913676818e-20
7.913675344e-20
7.913673793e-20
7.913672183e-20
7.913670534e-20
7.913668869e-20
7.913667216e-20
7.91366561e-20
7.913664087e-20
7.913662687e-20
7.913661451e-20
7.91366041e-20
7.913659585e-20
7.913658977e-20
7.913658563e-20
7.913658289e-20
7.913658065e-20
7.913657771e-20
7.913657253e-20
7.91365634e-20
7.913654848e-20
7.913652606e-20
7.913649471e-20
7.913645348e-20
7.913640214e-20
7.913634133e-20
7.913627265e-20
7.913619867e-20
7.913612285e-20
7.913604931e-20
7.913598249e-20
7.913592672e-20
7.913588567e-20
7.913586179e-20
7.913585585e-20
7.913586654e-20
7.913589082e-20
7.913592618e-20
7.913597886e-20
7.913608889e-20
7.913639532e-20
7.913727523e-20
7.913954684e-20
7.91444585e-20
7.915227438e-20
7.915423903e-20
7.915497359e-20
7.915573927e-20
7.915653735e-20
7.915736887e-20
7.915823506e-20
7.915913733e-20
7.916007724e-20
7.916105644e-20
7.916207663e-20
7.916313963e-20
7.916424728e-20
7.916540154e-20
7.916660444e-20
7.91678581e-20
7.916916477e-20
7.917052676e-20
7.917194651e-20
7.917342658e-20
7.917496964e-20
7.917657849e-20
7.917825606e-20
7.918000542e-20
7.918182979e-20
7.918373253e-20
7.918571718e-20
7.918778745e-20
7.918994721e-20
7.919220055e-20
7.919455173e-20
7.919700524e-20
7.91995658e-20
7.920223834e-20
7.920502806e-20
7.920794041e-20
7.921098114e-20
7.921415626e-20
7.921747212e-20
7.922093539e-20
7.92245531e-20
7.922833262e-20
7.923228175e-20
7.923640869e-20
7.924072207e-20
7.924523101e-20
7.924994512e-20
7.925487454e-20
7.926002997e-20
7.926542271e-20
7.927106472e-20
7.927696861e-20
7.928314772e-20
7.928961617e-20
7.92963889e-20
7.930348172e-20
7.931091137e-20
7.931869561e-20
7.932685323e-20
7.933540418e-20
7.934436961e-20
7.935377198e-20
7.936363513e-20
7.937398436e-20
7.938484657e-20
7.939625035e-20
7.940822608e-20
7.942080609e-20
7.943402476e-20
7.944791868e-20
7.94625268e-20
7.947789062e-20
7.949405429e-20
7.951106489e-20
7.952897257e-20
7.954783076e-20
7.956769645e-20
7.958863036e-20
7.961069727e-20
7.963396625e-20
7.965851094e-20
7.968440992e-20
7.971174698e-20
7.974061151e-20
7.977109886e-20
7.980331072e-20
7.983735557e-20
7.98733491e-20
7.991141471e-20
7.995168396e-20
7.999429714e-20
8.00394038e-20
8.008716334e-20
8.013774565e-20
8.01913317e-20
8.02481143e-20
8.030829877e-20
8.037210369e-20
8.043976171e-20
8.051152039e-20
8.058764302e-20
8.066840959e-20
8.075411766e-20
8.084508344e-20
8.094164272e-20
8.104415203e-20
8.115298969e-20
8.126855699e-20
8.13912794e-20
8.152160777e-20
8.166001967e-20
8.180702066e-20
8.19631457e-20
8.212896051e-20
8.230506306e-20
8.249208503e-20
8.269069333e-20
8.290159165e-20
8.312552208e-20
8.336326669e-20
8.361564919e-20
8.38835366e-20
8.416784098e-20
8.446952105e-20
8.478958405e-20
8.512908734e-20
8.548914025e-20
8.587090579e-20
8.627560236e-20
8.670450556e-20
8.715894982e-20
8.764033019e-20
8.815010395e-20
8.868979226e-20
8.926098181e-20
8.986532629e-20
9.050454796e-20
9.118043906e-20
9.189486318e-20
9.264975652e-20
9.344712914e-20
9.428906602e-20
9.517772809e-20
9.611535313e-20
9.710425649e-20
9.814683177e-20
9.924555133e-20
1.004029666e-19
1.016217083e-19
1.029044865e-19
1.042540905e-19
1.056733883e-19
1.071653265e-19
1.087329292e-19
1.103792973e-19
1.121076073e-19
1.139211102e-19
1.158231296e-19
1.178170601e-19
1.199063655e-19
1.220945761e-19
1.243852867e-19
1.267821537e-19
1.29288892e-19
1.319092721e-19
1.346471165e-19
1.375062961e-19
1.404907264e-19
1.436043629e-19
1.468511975e-19
1.502352534e-19
1.537605805e-19
1.574312502e-19
1.612513505e-19
1.652249804e-19
1.693562445e-19
1.736492471e-19
1.781080865e-19
1.827368489e-19
1.875396023e-19
1.9252039e-19
1.976832247e-19
2.03032082e-19
2.085708935e-19
2.143035408e-19
2.202338489e-19
2.263655797e-19
2.327024254e-19
2.39248002e-19
2.460058437e-19
2.529793956e-19
2.601720085e-19
2.675869325e-19
2.752273115e-19
2.830961773e-19
2.911964447e-19
2.99530906e-19
3.081022266e-19
3.169129402e-19
3.259654447e-19
3.352619986e-19
3.448047174e-19
3.545955707e-19
3.646363794e-19
3.749288138e-19
3.854743922e-19
3.962744791e-19
4.073302852e-19
4.186428671e-19
4.302131279e-19
4.420418184e-19
4.541295387e-19
4.664767406e-19
4.790837308e-19
4.919506747e-19
5.050776003e-19
5.184644043e-19
5.321108571e-19
5.4601661e-19
5.601812024e-19
5.746040704e-19
5.892845554e-19
6.042219143e-19
6.194153302e-19
6.34863924e-19
6.505667672e-19
6.665228947e-19
6.827313199e-19
6.991910496e-19
7.159011004e-19
7.328605161e-19
7.500683857e-19
7.675238631e-19
7.852261871e-19
8.031747034e-19
8.213688864e-19
8.398083636e-19
8.5849294e-19
8.774226243e-19
8.96597656e-19
9.160185338e-19
9.356860454e-19
9.556012981e-19
9.757657516e-19
9.961812508e-19
1.016850062e-18
1.037774907e-18
1.058959003e-18
1.080406101e-18
1.102120526e-18
1.124107219e-18
1.146371783e-18
1.168920523e-18
1.191760498e-18
1.214899568e-18
1.238346442e-18
1.262110729e-18
1.286202998e-18
1.310634823e-18
1.335418849e-18
1.360568844e-18
1.386099762e-18
1.412027806e-18
1.438370496e-18
1.465146721e-18
1.492376839e-18
1.520082718e-18
1.548287808e-18
1.577017224e-18
1.606297822e-18
1.636158277e-18
1.666629164e-18
1.697743041e-18
1.72953453e-18
1.762040405e-18
1.795299675e-18
1.829353676e-18
1.864246155e-18
1.90002337e-18
1.93673417e-18
1.974430106e-18
2.013165529e-18
2.052997689e-18
2.093986843e-18
2.136196372e-18
2.179692889e-18
2.224546337e-18
2.27083011e-18
2.318621173e-18
2.368000189e-18
2.419051642e-18
2.471863969e-18
2.526529689e-18
2.583145545e-18
2.641812648e-18
2.702636618e-18
2.765727747e-18
2.831201148e-18
2.899176928e-18
2.969780358e-18
3.043142051e-18
3.119398153e-18
3.198690536e-18
3.281167006e-18
3.366981517e-18
3.456294401e-18
3.549272602e-18
3.646089932e-18
3.74692733e-18
3.851973147e-18
3.961423438e-18
4.075482276e-18
4.194362081e-18
4.318283969e-18
4.447478126e-18
4.582184202e-18
4.722651727e-18
4.869140558e-18
5.021921349e-18
5.181276064e-18
5.347498509e-18
5.520894912e-18
5.701784542e-18
5.890500376e-18
6.087389816e-18
6.292815468e-18
6.507155993e-18
6.730807036e-18
6.964182254e-18
7.207714456e-18
7.461856888e-18
7.727084687e-18
8.003896543e-18
8.292816636e-18
8.594396895e-18
8.909219689e-18
9.237901051e-18
9.581094591e-18
9.939496296e-18
1.031385047e-17
1.070495717e-17
1.11136815e-17
1.154096546e-17
1.198784294e-17
1.245545899e-17
1.294509448e-17
1.345819787e-17
1.399642629e-17
1.456169862e-17
1.515626434e-17
1.578279292e-17
1.64444899e-17
1.714524795e-17
1.78898434e-17
1.868419224e-17
1.953568355e-17
2.045361411e-17
2.144975483e-17
2.253908938e-17
2.374077718e-17
2.507940943e-17
2.658664706e-17
2.830335717e-17
3.028239951e-17
3.259226097e-17
3.532179597e-17
3.858640938e-17
4.253612046e-17
4.73660799e-17
5.333028546e-17
6.075946819e-17
7.008441595e-17
8.1866385e-17
9.683675097e-17
1.159487018e-16
1.404446234e-16
1.719439342e-16
2.125575595e-16
2.650371092e-16
3.329692529e-16
4.210289488e-16
5.353092946e-16
6.837511096e-16
8.767022924e-16
1.127646006e-15
1.454148423e-15
1.879091917e-15
2.4322792e-15
3.152519346e-15
4.090339485e-15
5.311508461e-15
6.901613585e-15
8.972002349e-15
1.166749199e-14
1.517636692e-14
1.974333417e-14
2.568629949e-14
3.341807266e-14
4.347442381e-14
5.655031122e-14
7.354660577e-14
9.563027453e-14
1.243117877e-13
1.615445161e-13
2.098521348e-13
2.72491596e-13
3.536611294e-13
4.587650461e-13
5.947499071e-13
7.70529944e-13
9.975235121e-13
1.290326837e-12
1.667556322e-12
2.152896084e-12
2.77639285e-12
3.576045341e-12
4.599738772e-12
5.907575415e-12
7.574646188e-12
9.694270469e-12
1.238169151e-11
1.57781345e-11
2.005498168e-11
2.541754283e-11
3.210742767e-11
4.040176992e-11
5.060642978e-11
6.303878205e-11
7.79938999e-11
9.568634076e-11
1.161596489e-10
1.391602291e-10
1.639874798e-10
1.893660057e-10
2.134389716e-10
2.340227527e-10
2.492029681e-10
2.580936397e-10
2.612303916e-10
2.601109221e-10
2.562400209e-10
2.507841851e-10
2.448882901e-10
2.395958993e-10
2.354994821e-10
2.327742696e-10
2.314218139e-10
2.314205493e-10
2.327639606e-10
2.354808778e-10
2.395538548e-10
2.450952558e-10
2.520012844e-10
2.600324703e-10
2.682370586e-10
2.764930663e-10
2.836617273e-10
2.879811049e-10
2.872282121e-10
2.792375044e-10
2.637244632e-10
2.416211022e-10
2.157323625e-10
1.894521024e-10
1.654020837e-10
1.444920194e-10
1.275675274e-10
1.135681187e-10
1.01498633e-10
9.019478959e-11
7.916757399e-11
6.789692015e-11
5.651665579e-11
4.561608782e-11
3.572769071e-11
2.723505187e-11
2.029748855e-11
1.485468148e-11
1.071476211e-11
7.63638061e-12
5.379225713e-12
3.761840667e-12
2.605268058e-12
1.796537933e-12
1.232770905e-12
8.428536244e-13
5.749502752e-13
3.919149146e-13
2.664422317e-13
1.802691876e-13
1.219268497e-13
8.250271209e-14
5.587025426e-14
3.787153977e-14
2.57073466e-14
1.747461604e-14
1.18915502e-14
8.102405232e-15
5.567169949e-15
3.833216014e-15
2.633797565e-15
1.814030994e-15
1.252060235e-15
8.657448567e-16
5.995422935e-16
4.157346401e-16
2.88673582e-16
2.006212125e-16
1.395598477e-16
9.716748916e-17
6.770571628e-17
4.721098964e-17
3.294167163e-17
2.299882878e-17
1.606561981e-17
1.122784272e-17
7.850168405e-18
5.490646164e-18
3.84157459e-18
2.68854467e-18
1.882043816e-18
1.317742121e-18
9.227935765e-19
6.463069235e-19
4.527112515e-19
3.171330884e-19
2.2217266e-19
1.55654099e-19
1.090548678e-19
7.640807167e-20
5.353522526e-20
3.750971281e-20
2.628151187e-20
1.841448164e-20
1.290247099e-20
9.040488213e-21
6.334628149e-21
4.438794762e-21
3.110516451e-21
2.179835407e-21
1.527750928e-21
1.070844761e-21
7.507001668e-22
5.263486721e-22
3.691235429e-22
2.589223668e-22
1.816612299e-22
1.274902232e-22
8.950466796e-23
6.28695848e-23
4.418183988e-23
3.106284303e-23
2.185522086e-23
1.538133635e-23
1.083427928e-23
7.639619634e-24
5.398363895e-24
3.818694373e-24
2.698460861e-24
1.905444931e-24
1.365437294e-24
9.720235644e-25
6.982622086e-25
4.9616703e-25
3.487201634e-25
2.41676237e-25
1.745343473e-25
1.285143614e-25
1.005068345e-25
7.582526134e-26
5.69922692e-26
4.276966042e-26
3.088043942e-26
2.405428432e-26
2.088681025e-26
1.950031975e-26
2.124455458e-26
1.481492818e-26
1.099496501e-26
9.217164622e-27
9.48836099e-27
1.184152873e-26
8.225604771e-27
6.044492254e-27
4.207915233e-27
3.1505237e-27
2.598924388e-27
2.066807126e-27
1.710981082e-27
1.458096697e-27
1.506969006e-27
1.751546245e-27
2.12361652e-27
2.81391927e-27
3.88874032e-27
5.483386523e-27
4.333528904e-27
3.844516051e-27
3.976929507e-27
4.800659585e-27
3.428157077e-27
2.610651293e-27
2.058677203e-27
1.677413132e-27
1.3905415e-27
1.256499259e-27
1.370591163e-27
6.878920043e-28
4.203568562e-28
4.048846909e-28
5.795636931e-28
9.791883615e-28
1.623802083e-27
2.593095143e-27
4.059962295e-27
3.170118172e-27
2.790954664e-27
2.727128935e-27
2.961128245e-27
3.487048247e-27
4.498946445e-27
5.405760496e-27
7.160869159e-27
1.019557613e-26
8.755383929e-27
8.779635461e-27
9.813536832e-27
1.256278843e-26
9.969954897e-27
8.849647072e-27
8.713933733e-27
8.103463998e-27
7.819192671e-27
8.614036906e-27
1.080254036e-26
7.851478248e-27
5.818760191e-27
4.511431675e-27
3.709955579e-27
3.122086601e-27
2.701458948e-27
2.660987641e-27
2.658811801e-27
2.917327334e-27
3.515549722e-27
2.85878297e-27
2.624523472e-27
2.855382218e-27
3.596882512e-27
2.633901995e-27
2.04234751e-27
1.706985646e-27
1.54218401e-27
1.583913321e-27
1.806274402e-27
2.183307246e-27
2.809288936e-27
2.537434824e-27
2.586057993e-27
3.021761238e-27
2.613342605e-27
2.564196024e-27
2.390315952e-27
2.590070486e-27
3.236855136e-27
4.481419244e-27
5.122390086e-27
3.690999128e-27
2.854457406e-27
2.489282582e-27
2.526620076e-27
2.503431878e-27
2.800676077e-27
3.464438549e-27
2.679020742e-27
2.25567189e-27
2.1805306e-27
2.511273205e-27
3.371532412e-27
2.6584111e-27
2.505927291e-27
2.088369951e-27
2.109724049e-27
2.120512056e-27
2.536760867e-27
3.43491484e-27
3.680284167e-27
3.533011453e-27
2.67604589e-27
2.010098014e-27
1.394602163e-27
1.00361678e-27
8.231497778e-28
8.057432347e-28
9.558854418e-28
9.896917679e-28
1.252885291e-27
1.559131598e-27
2.213184545e-27
1.67144119e-27
1.452183504e-27
1.539508531e-27
1.265455633e-27
1.258224518e-27
1.510120431e-27
1.524744066e-27
1.799629976e-27
2.391736636e-27
2.418921534e-27
2.869194359e-27
2.412053547e-27
2.338341078e-27
1.755249493e-27
1.475789388e-27
1.189226133e-27
9.301089868e-28
7.418668092e-28
6.473496334e-28
6.067759407e-28
5.675148823e-28
4.784993341e-28
3.633939741e-28
3.003203462e-28
2.613473675e-28
2.647765534e-28
3.064001683e-28
3.849250108e-28
4.819098536e-28
5.955457333e-28
7.399397769e-28
6.85479091e-28
6.232983153e-28
6.023732626e-28
6.339225389e-28
7.2828714e-28
8.957510837e-28
1.144894688e-27
1.123735993e-27
1.004253645e-27
9.004310753e-28
8.483148109e-28
8.600564214e-28
9.90326811e-28
1.316335731e-27
1.96437222e-27
1.922309963e-27
1.317501006e-27
9.588740324e-28
6.527525503e-28
4.673291243e-28
3.794917063e-28
3.461029527e-28
3.263948969e-28
3.357375853e-28
3.800298853e-28
4.835439291e-28
4.616204438e-28
5.037723534e-28
6.287335451e-28
8.735948335e-28
1.301108344e-27
9.880649795e-28
8.432387259e-28
8.414168181e-28
9.250002934e-28
1.181365731e-27
8.791170768e-28
6.138411088e-28
4.367463824e-28
3.09018442e-28
2.16929824e-28
1.528611987e-28
1.167827672e-28
9.933404479e-29
1.005157632e-28
1.251239202e-28
1.645305436e-28
2.031278985e-28
2.639215695e-28
3.538789478e-28
4.842581386e-28
6.976615652e-28
1.055894151e-27
7.48222308e-28
5.696642202e-28
4.850606805e-28
4.668362758e-28
4.944423139e-28
5.933584497e-28
5.016920195e-28
4.9697904e-28
5.839409769e-28
7.899044357e-28
8.638292678e-28
1.055696793e-27
9.530177544e-28
7.70741943e-28
6.331783569e-28
5.766944392e-28
6.263514519e-28
5.84958559e-28
6.506244434e-28
5.680665457e-28
4.495214383e-28
3.92761278e-28
3.900453398e-28
4.302083877e-28
5.03368128e-28
4.224758409e-28
3.814553991e-28
3.866546861e-28
3.442912562e-28
3.462930863e-28
3.729068073e-28
4.252555464e-28
5.166775013e-28
6.596859866e-28
5.042771032e-28
4.08416614e-28
3.626381514e-28
3.617858582e-28
4.112208808e-28
5.223206758e-28
4.631625335e-28
4.525899892e-28
3.184368488e-28
2.458292009e-28
2.199395359e-28
2.274188231e-28
2.746500411e-28
3.778881501e-28
5.081290439e-28
7.464011175e-28
9.278201094e-28
7.680580398e-28
7.249688682e-28
6.553171379e-28
6.697839237e-28
7.547657418e-28
8.415889684e-28
8.757925176e-28
9.894376104e-28
9.863136408e-28
8.533476665e-28
6.407800613e-28
4.995877371e-28
4.153290132e-28
3.842951855e-28
4.089507297e-28
5.010571916e-28
5.901594014e-28
5.44556188e-28
5.178321671e-28
4.30096103e-28
3.702517745e-28
3.850153524e-28
4.874221245e-28
4.980352993e-28
4.391867882e-28
4.814582973e-28
4.304758125e-28
4.564889535e-28
5.593896735e-28
4.224833912e-28
3.561748352e-28
2.865903439e-28
2.679950532e-28
2.161739169e-28
2.069340123e-28
2.414653035e-28
1.945267803e-28
1.785450826e-28
1.62561896e-28
1.675009872e-28
1.911675345e-28
2.432135748e-28
2.370197092e-28
2.723613483e-28
2.601727257e-28
2.913394671e-28
2.47365917e-28
2.392222002e-28
2.725780324e-28
3.618226725e-28
3.175760957e-28
3.345487316e-28
2.32470294e-28
1.696210463e-28
1.374952333e-28
1.346666705e-28
1.476379311e-28
1.957199367e-28
2.935265569e-28
3.09014848e-28
2.984706087e-28
2.227785206e-28
1.851292596e-28
1.817304449e-28
2.157063864e-28
1.781031257e-28
1.741335582e-28
2.011615321e-28
2.104549194e-28
2.418348838e-28
3.019677427e-28
4.175099128e-28
3.977552326e-28
3.365238743e-28
3.213848235e-28
3.756250301e-28
4.291282135e-28
3.976987985e-28
3.226080507e-28
2.892372528e-28
2.932969723e-28
3.342985463e-28
4.05793644e-28
4.459038634e-28
3.348514311e-28
2.631361468e-28
2.139090554e-28
1.880120858e-28
1.892069675e-28
1.680305608e-28
1.342956967e-28
1.250831118e-28
1.416962536e-28
1.904478468e-28
2.855956378e-28
2.327090868e-28
1.938518912e-28
1.836727171e-28
1.384557472e-28
1.110552715e-28
1.000068922e-28
9.835569239e-29
1.036420184e-28
1.118370661e-28
1.24922509e-28
1.458417132e-28
1.774472459e-28
1.542137245e-28
1.442380163e-28
1.504523756e-28
1.769936898e-28
2.012106724e-28
2.301655255e-28
2.156860816e-28
2.398704928e-28
1.73746537e-28
1.37653274e-28
1.253491105e-28
1.348082564e-28
1.383025893e-28
1.569069745e-28
1.980464109e-28
2.735910424e-28
2.270715646e-28
2.190750307e-28
2.511863843e-28
1.848647111e-28
1.473872774e-28
1.358986678e-28
1.527972535e-28
1.342658596e-28
1.380030762e-28
1.633201817e-28
2.14142438e-28
2.186479283e-28
2.620341319e-28
3.187988405e-28
3.196741403e-28
3.110405488e-28
2.926955933e-28
3.187833322e-28
2.593215184e-28
2.3604223e-28
1.763242891e-28
1.363772806e-28
1.123394349e-28
9.198319698e-29
7.608767794e-29
7.186040979e-29
7.91492388e-29
9.836920409e-29
9.342806544e-29
8.379810749e-29
8.030731268e-29
8.30897756e-29
9.79180267e-29
1.30788301e-28
1.063560266e-28
9.901756553e-29
1.078328358e-28
1.34379815e-28
1.818034909e-28
2.545871164e-28
2.028756196e-28
1.832650018e-28
1.775211699e-28
2.008642111e-28
1.806121819e-28
1.56335364e-28
4.155197542e-30
0
0
0
2.280361576e-28
2.24534577e-28
4.520848193e-30
3.712777544e-30
1.407567328e-28
5.468553347e-29
1.443842885e-29
1.886375795e-29
5.379000884e-29
3.793783143e-29
1.441852518e-29
2.350571569e-32
3.086595761e-29
6.463429528e-29
1.322130695e-29
6.988358629e-30
1.476933518e-30
9.049836978e-30
1.204789037e-30
5.207069089e-30
3.668835596e-30
1.837887754e-30
1.323735621e-30
2.896133472e-30
1.279597794e-31
1.764895102e-30
3.258187696e-31
3.032995121e-30
8.668357615e-30
5.700689592e-30
9.174449617e-31
2.714730295e-31
8.169175185e-31
6.181638339e-32
1.757307234e-30
1.894244311e-30
4.573025368e-31
6.0200172e-31
4.421000975e-30
0
0
6.486344329e-30
0
1.095356171e-32
0
1.474656856e-30
7.860876175e-32
2.975578803e-30
4.248219012e-30
2.253645683e-30
0
1.031850213e-29
7.43935358e-30
2.378446068e-31
1.162697564e-30
5.890710672e-32
2.029677457e-30
3.167811658e-31
7.052063685e-31
3.678611905e-32
4.918358543e-31
3.167162323e-32
1.926132753e-32
0
0
0
1.120494818e-30
4.320776845e-31
9.826747324e-31
0
2.862056144e-30
9.151650745e-31
1.713814221e-30
3.285758508e-32
1.370645229e-30
0
0
2.668871904e-30
1.692284554e-30
2.210271037e-31
1.021930442e-32
0
0
0
5.294168193e-31
2.402635352e-33
1.291651025e-31
3.139594854e-33
2.663445805e-32
7.303084291e-34
0
1.395092847e-32
2.197434216e-34
9.843602625e-32
1.09070917e-33
1.064187572e-32
6.272133385e-32
1.936082072e-33
6.010276527e-33
5.824820703e-33
1.430751214e-32
1.878901715e-32
1.173351417e-31
1.277646868e-33
2.435475959e-32
2.28982461e-32
7.735517642e-34
5.053490783e-32
9.438864252e-34
5.768506032e-34
9.398699424e-33
9.244147677e-34
1.914624207e-32
8.270887356e-33
8.401085816e-33
7.420275587e-33
2.449536203e-33
0
0
9.773915347e-34
0
1.517609691e-32
0
0
5.274535388e-34
9.399554146e-35
2.739991418e-32
4.168947948e-34
5.346432294e-32
3.373947604e-32
1.224839695e-32
1.581759572e-32
1.190563881e-31
1.437045524e-32
2.455984205e-32
1.794390161e-33
1.750550609e-32
1.91890025e-32
2.631509296e-32
7.72639529e-33
0
1.742858048e-31
2.632502333e-32
2.419665646e-32
4.970879481e-32
0
0
4.205274192e-33
0
2.085946845e-32
0
6.399377578e-32
7.17488603e-32
5.11433157e-32
1.182847787e-31
2.195310444e-32
7.49398396e-32
1.758304786e-31
2.066680527e-32
2.510782453e-32
7.419057432e-34
0
0
1.205497317e-31
1.214823166e-32
1.329271164e-32
1.211737419e-33
0
0
1.894686746e-32
6.826658839e-32
2.78011156e-32
8.310721876e-32
6.210063598e-32
1.272698082e-31
7.868293136e-32
5.65047549e-32
4.528200509e-32
1.750798264e-31
0
3.807446632e-32
0
4.802765213e-32
0
8.698723397e-32
1.254678506e-31
4.739453868e-33
8.636041994e-32
6.633192839e-32
1.38610539e-32
1.022807137e-33
3.829481333e-32
2.668655287e-32
1.342842875e-32
0
2.184651395e-32
3.585184457e-32
1.249777484e-32
0
4.380518144e-33
0
5.907799563e-32
1.198835394e-32
0
7.999967666e-33
6.743724864e-32
0
0
0
8.393066807e-32
7.131444682e-34
2.222120025e-32
1.448967433e-34
4.941844933e-35
2.173715609e-32
0
2.103675768e-35
5.715147299e-33
1.977807639e-33
1.613210645e-34
9.709525428e-33
8.504699695e-33
9.606071629e-33
2.294653755e-33
1.150793685e-33
5.225839844e-34
4.644391834e-34
2.18197847e-32
0
2.293620552e-32
4.243570671e-33
1.01269562e-34
0
0
2.095061533e-33
0
7.984465415e-34
0
0
2.270548684e-34
0
2.483018283e-32
2.765383545e-34
0
)
;

boundaryField
{
    inlet
    {
        type            fixedValue;
        value           uniform 0;
    }
    outlet
    {
        type            zeroGradient;
    }
    wall
    {
        type            empty;
    }
}


// ************************************************************************* //
