/*--------------------------------*- C++ -*----------------------------------*\
  =========                 |
  \\      /  F ield         | OpenFOAM: The Open Source CFD Toolbox
   \\    /   O peration     | Website:  https://openfoam.org
    \\  /    A nd           | Version:  7
     \\/     M anipulation  |
\*---------------------------------------------------------------------------*/
FoamFile
{
    version     2.0;
    format      ascii;
    class       volScalarField;
    location    "0.000558243009";
    object      C4H8-1;
}
// * * * * * * * * * * * * * * * * * * * * * * * * * * * * * * * * * * * * * //

dimensions      [0 0 0 0 0 0 0];

internalField   nonuniform List<scalar> 
1500
(
1.207383734e-14
4.707587673e-14
9.692621604e-14
1.449687467e-13
1.803711044e-13
2.017032861e-13
2.126296444e-13
2.175028773e-13
2.194278242e-13
2.201102697e-13
2.203298466e-13
2.2039457e-13
2.204121886e-13
2.20416648e-13
2.204177036e-13
2.204179385e-13
2.204179879e-13
2.204179977e-13
2.204179996e-13
2.204179999e-13
2.20418e-13
2.20418e-13
2.20418e-13
2.20418e-13
2.20418e-13
2.20418e-13
2.20418e-13
2.20418e-13
2.20418e-13
2.20418e-13
2.20418e-13
2.20418e-13
2.20418e-13
2.20418e-13
2.20418e-13
2.20418e-13
2.20418e-13
2.20418e-13
2.20418e-13
2.20418e-13
2.20418e-13
2.20418e-13
2.20418e-13
2.20418e-13
2.20418e-13
2.20418e-13
2.20418e-13
2.20418e-13
2.20418e-13
2.20418e-13
2.20418e-13
2.20418e-13
2.20418e-13
2.20418e-13
2.20418e-13
2.20418e-13
2.20418e-13
2.20418e-13
2.20418e-13
2.20418e-13
2.20418e-13
2.20418e-13
2.20418e-13
2.20418e-13
2.20418e-13
2.20418e-13
2.20418e-13
2.20418e-13
2.20418e-13
2.20418e-13
2.20418e-13
2.20418e-13
2.20418e-13
2.20418e-13
2.20418e-13
2.20418e-13
2.20418e-13
2.20418e-13
2.20418e-13
2.20418e-13
2.20418e-13
2.20418e-13
2.20418e-13
2.20418e-13
2.20418e-13
2.20418e-13
2.20418e-13
2.20418e-13
2.20418e-13
2.20418e-13
2.20418e-13
2.20418e-13
2.20418e-13
2.20418e-13
2.20418e-13
2.20418e-13
2.20418e-13
2.20418e-13
2.20418e-13
2.20418e-13
2.20418e-13
2.20418e-13
2.20418e-13
2.20418e-13
2.20418e-13
2.20418e-13
2.20418e-13
2.20418e-13
2.20418e-13
2.20418e-13
2.20418e-13
2.20418e-13
2.20418e-13
2.20418e-13
2.20418e-13
2.20418e-13
2.20418e-13
2.20418e-13
2.20418e-13
2.20418e-13
2.20418e-13
2.20418e-13
2.20418e-13
2.20418e-13
2.20418e-13
2.20418e-13
2.20418e-13
2.20418e-13
2.20418e-13
2.20418e-13
2.20418e-13
2.20418e-13
2.20418e-13
2.20418e-13
2.20418e-13
2.20418e-13
2.20418e-13
2.20418e-13
2.20418e-13
2.20418e-13
2.20418e-13
2.20418e-13
2.20418e-13
2.20418e-13
2.20418e-13
2.20418e-13
2.20418e-13
2.20418e-13
2.20418e-13
2.20418e-13
2.20418e-13
2.20418e-13
2.20418e-13
2.20418e-13
2.20418e-13
2.20418e-13
2.20418e-13
2.20418e-13
2.20418e-13
2.20418e-13
2.20418e-13
2.20418e-13
2.20418e-13
2.20418e-13
2.20418e-13
2.20418e-13
2.20418e-13
2.20418e-13
2.20418e-13
2.20418e-13
2.20418e-13
2.20418e-13
2.20418e-13
2.20418e-13
2.20418e-13
2.20418e-13
2.20418e-13
2.20418e-13
2.20418e-13
2.20418e-13
2.20418e-13
2.20418e-13
2.20418e-13
2.20418e-13
2.20418e-13
2.20418e-13
2.20418e-13
2.20418e-13
2.20418e-13
2.20418e-13
2.20418e-13
2.20418e-13
2.20418e-13
2.20418e-13
2.20418e-13
2.20418e-13
2.20418e-13
2.20418e-13
2.20418e-13
2.20418e-13
2.20418e-13
2.20418e-13
2.20418e-13
2.20418e-13
2.20418e-13
2.20418e-13
2.20418e-13
2.20418e-13
2.20418e-13
2.20418e-13
2.20418e-13
2.20418e-13
2.20418e-13
2.20418e-13
2.20418e-13
2.20418e-13
2.20418e-13
2.20418e-13
2.20418e-13
2.20418e-13
2.20418e-13
2.20418e-13
2.20418e-13
2.20418e-13
2.20418e-13
2.20418e-13
2.20418e-13
2.20418e-13
2.20418e-13
2.20418e-13
2.20418e-13
2.20418e-13
2.20418e-13
2.20418e-13
2.20418e-13
2.20418e-13
2.20418e-13
2.204180001e-13
2.204180004e-13
2.204180015e-13
2.204180059e-13
2.204180229e-13
2.204180843e-13
2.204182894e-13
2.204189219e-13
2.204207059e-13
2.204252564e-13
2.204355468e-13
2.20455347e-13
2.204842681e-13
2.204927545e-13
2.204955814e-13
2.204985203e-13
2.205015773e-13
2.205047564e-13
2.205080622e-13
2.205114993e-13
2.205150733e-13
2.205187899e-13
2.205226553e-13
2.205266758e-13
2.20530858e-13
2.205352091e-13
2.205397361e-13
2.205444469e-13
2.205493493e-13
2.205544518e-13
2.205597632e-13
2.205652926e-13
2.205710497e-13
2.205770447e-13
2.205832883e-13
2.205897916e-13
2.205965665e-13
2.206036252e-13
2.206109808e-13
2.206186469e-13
2.206266379e-13
2.20634969e-13
2.206436561e-13
2.20652716e-13
2.206621664e-13
2.206720258e-13
2.206823141e-13
2.206930518e-13
2.207042609e-13
2.207159644e-13
2.207281868e-13
2.207409537e-13
2.207542925e-13
2.207682318e-13
2.207828021e-13
2.207980356e-13
2.208139662e-13
2.208306301e-13
2.208480654e-13
2.208663125e-13
2.208854142e-13
2.209054158e-13
2.209263655e-13
2.209483142e-13
2.209713159e-13
2.209954281e-13
2.210207116e-13
2.210472309e-13
2.210750546e-13
2.211042553e-13
2.211349104e-13
2.211671019e-13
2.212009168e-13
2.212364477e-13
2.212737929e-13
2.213130566e-13
2.213543498e-13
2.213977903e-13
2.214435032e-13
2.214916215e-13
2.215422864e-13
2.215956479e-13
2.216518656e-13
2.217111086e-13
2.217735567e-13
2.218394011e-13
2.219088444e-13
2.21982102e-13
2.220594024e-13
2.221409883e-13
2.222271172e-13
2.223180621e-13
2.22414113e-13
2.225155771e-13
2.226227803e-13
2.227360681e-13
2.228558066e-13
2.229823835e-13
2.231162097e-13
2.232577201e-13
2.234073751e-13
2.235656619e-13
2.237330958e-13
2.239102217e-13
2.240976155e-13
2.242958857e-13
2.245056752e-13
2.247276625e-13
2.249625639e-13
2.252111347e-13
2.254741717e-13
2.257525146e-13
2.260470479e-13
2.263587032e-13
2.266884609e-13
2.270373525e-13
2.274064629e-13
2.277969319e-13
2.282099573e-13
2.286467965e-13
2.291087691e-13
2.295972593e-13
2.301137181e-13
2.306596659e-13
2.312366948e-13
2.318464711e-13
2.324907379e-13
2.331713175e-13
2.338901137e-13
2.34649115e-13
2.354503962e-13
2.362961216e-13
2.371885473e-13
2.381300234e-13
2.39122997e-13
2.401700139e-13
2.412737218e-13
2.424368717e-13
2.43662321e-13
2.44953035e-13
2.463120895e-13
2.477426727e-13
2.492480869e-13
2.508317505e-13
2.524971999e-13
2.542480907e-13
2.560881995e-13
2.580214248e-13
2.600517888e-13
2.621834377e-13
2.64420643e-13
2.667678017e-13
2.692294373e-13
2.718101996e-13
2.745148649e-13
2.773483356e-13
2.803156402e-13
2.834219322e-13
2.866724894e-13
2.900727125e-13
2.936281241e-13
2.973443667e-13
3.012272006e-13
3.05282502e-13
3.095162599e-13
3.139345741e-13
3.185436511e-13
3.233498015e-13
3.283594356e-13
3.3357906e-13
3.390152727e-13
3.446747587e-13
3.505642854e-13
3.566906967e-13
3.630609083e-13
3.69681901e-13
3.765607155e-13
3.837044456e-13
3.911202316e-13
3.988152536e-13
4.067967245e-13
4.150718824e-13
4.236479834e-13
4.325322937e-13
4.417320816e-13
4.5125461e-13
4.611071273e-13
4.712968601e-13
4.81831004e-13
4.927167155e-13
5.039611033e-13
5.1557122e-13
5.27554053e-13
5.399165165e-13
5.526654429e-13
5.658075741e-13
5.793495534e-13
5.932979175e-13
6.076590884e-13
6.224393655e-13
6.376449185e-13
6.532817797e-13
6.693558374e-13
6.858728295e-13
7.028383367e-13
7.202577775e-13
7.381364025e-13
7.564792898e-13
7.752913404e-13
7.945772752e-13
8.143416313e-13
8.345887602e-13
8.553228257e-13
8.765478029e-13
8.982674784e-13
9.204854506e-13
9.432051313e-13
9.664297482e-13
9.901623478e-13
1.0144058e-12
1.039162804e-12
1.064435892e-12
1.09022744e-12
1.116539675e-12
1.143374684e-12
1.170734425e-12
1.198620738e-12
1.227035364e-12
1.25597995e-12
1.285456074e-12
1.315465258e-12
1.346008986e-12
1.377088726e-12
1.408705953e-12
1.440862169e-12
1.473558927e-12
1.506797864e-12
1.540580719e-12
1.574909372e-12
1.609785867e-12
1.645212452e-12
1.681191608e-12
1.717726087e-12
1.754818953e-12
1.792473616e-12
1.83069388e-12
1.869483983e-12
1.908848641e-12
1.948793101e-12
1.989323184e-12
2.030445341e-12
2.072166704e-12
2.114495142e-12
2.157439318e-12
2.201008748e-12
2.245213864e-12
2.290066078e-12
2.335577845e-12
2.381762733e-12
2.428635494e-12
2.476212134e-12
2.524509991e-12
2.573547808e-12
2.623345816e-12
2.673925812e-12
2.725311247e-12
2.777527308e-12
2.830601011e-12
2.884561289e-12
2.939439086e-12
2.995267458e-12
3.052081664e-12
3.109919275e-12
3.168820275e-12
3.22882717e-12
3.289985104e-12
3.352341958e-12
3.4159485e-12
3.480858477e-12
3.547128727e-12
3.614819323e-12
3.683993699e-12
3.754718787e-12
3.827065155e-12
3.901107146e-12
3.97692302e-12
4.054595104e-12
4.134209932e-12
4.215858403e-12
4.299635933e-12
4.385642618e-12
4.473983385e-12
4.564768181e-12
4.658112148e-12
4.754135809e-12
4.852965249e-12
4.954732336e-12
5.059574916e-12
5.167636998e-12
5.27906897e-12
5.39402783e-12
5.512677422e-12
5.635188669e-12
5.761739831e-12
5.892516755e-12
6.027713146e-12
6.167530847e-12
6.312180133e-12
6.461880006e-12
6.616858523e-12
6.777353116e-12
6.943610947e-12
7.115889263e-12
7.294455781e-12
7.479589082e-12
7.671579032e-12
7.870727219e-12
8.07734742e-12
8.291766087e-12
8.514322869e-12
8.745371154e-12
8.985278659e-12
9.234428043e-12
9.493217577e-12
9.762061855e-12
1.004139256e-11
1.033165928e-11
1.063333043e-11
1.094689423e-11
1.127285978e-11
1.161175825e-11
1.196414423e-11
1.233059721e-11
1.271172327e-11
1.310815702e-11
1.352056374e-11
1.394964198e-11
1.439612649e-11
1.48607917e-11
1.534445575e-11
1.584798539e-11
1.63723017e-11
1.691838707e-11
1.748729347e-11
1.808015263e-11
1.86981882e-11
1.934273075e-11
2.001523599e-11
2.071730709e-11
2.145072212e-11
2.221746775e-11
2.30197808e-11
2.386019936e-11
2.474162608e-11
2.56674062e-11
2.664142412e-11
2.766822294e-11
2.875315233e-11
2.990255191e-11
3.112397823e-11
3.242648633e-11
3.382097877e-11
3.532063843e-11
3.694146541e-11
3.870294301e-11
4.062886403e-11
4.274835598e-11
4.509715323e-11
4.771917561e-11
5.066848741e-11
5.401172839e-11
5.783113071e-11
6.222826279e-11
6.732867553e-11
7.328766793e-11
8.029744194e-11
8.859598091e-11
9.847806653e-11
1.103089488e-10
1.245413072e-10
1.417362944e-10
1.62589644e-10
1.879640581e-10
2.189293844e-10
2.568124508e-10
3.032588746e-10
3.603097178e-10
4.304965443e-10
5.169592852e-10
6.235923673e-10
7.552258592e-10
9.178499958e-10
1.118893427e-09
1.367567982e-09
1.675295781e-09
2.056238237e-09
2.527951119e-09
3.112195498e-09
3.835941383e-09
4.732609457e-09
5.843606828e-09
7.220225687e-09
8.92598958e-09
1.103955142e-08
1.365827101e-08
1.690262868e-08
2.092166684e-08
2.589969351e-08
3.206453374e-08
3.969767638e-08
4.914673847e-08
6.084075815e-08
7.530893325e-08
9.320354739e-08
1.153279729e-07
1.426708111e-07
1.764474286e-07
2.181503745e-07
2.696104194e-07
3.330702395e-07
4.112730813e-07
5.075690671e-07
6.260421449e-07
7.716610174e-07
9.504576931e-07
1.169737557e-06
1.438325017e-06
1.766848815e-06
2.168070916e-06
2.657262486e-06
3.25262975e-06
3.975791426e-06
4.852307961e-06
5.912260855e-06
7.190878086e-06
8.729198972e-06
1.057476899e-05
1.278235221e-05
1.541464648e-05
1.854298431e-05
2.224800126e-05
2.662025358e-05
3.176076759e-05
3.778150613e-05
4.480574042e-05
5.296832043e-05
6.241584138e-05
7.330670925e-05
8.581111278e-05
0.0001001109141
0.0001163994744
0.0001348814349
0.0001557724832
0.0001792991237
0.000205698505
0.0002352183401
0.0002681169899
0.0003046638118
0.0003451399638
0.0003898400886
0.0004390584703
0.000493179464
0.0005524574907
0.0006176289068
0.0006891202863
0.0007674665385
0.0008513065783
0.00094205752
0.001039904571
0.001144478021
0.001254216507
0.001365703671
0.001473864993
0.001573796729
0.001661995694
0.001735858315
0.001792772408
0.001830695799
0.001844497442
0.001831301685
0.001787312502
0.001708146227
0.00159471173
0.001447445048
0.00127187734
0.001075787309
0.0008755270936
0.0006832977928
0.000511609204
0.0003687610534
0.0002575425579
0.0001758062875
0.0001179881757
7.881361488e-05
5.241677132e-05
3.492692406e-05
2.33056257e-05
1.558092367e-05
1.044089694e-05
7.019052044e-06
4.708629845e-06
3.152188217e-06
2.112896252e-06
1.418062149e-06
9.529371254e-07
6.41117269e-07
4.31714449e-07
2.908424596e-07
1.958941262e-07
1.318892646e-07
8.969928495e-08
6.114216295e-08
4.149082645e-08
2.821556578e-08
1.923096898e-08
1.313646021e-08
8.99271943e-09
6.168912475e-09
4.243164457e-09
2.92363637e-09
2.018935968e-09
1.397397081e-09
9.695065258e-10
6.742962341e-10
4.701676371e-10
3.286889347e-10
2.30393389e-10
1.619281623e-10
1.141165943e-10
8.063934613e-11
5.713543574e-11
4.058857673e-11
2.890761647e-11
2.063920548e-11
1.477067103e-11
1.059452738e-11
7.615156828e-12
5.484400302e-12
3.957000126e-12
2.859701982e-12
2.069774764e-12
1.50003851e-12
1.088400227e-12
7.905199552e-13
5.746560698e-13
4.180318767e-13
3.042671462e-13
2.215572677e-13
1.613787734e-13
1.175665427e-13
8.565421711e-14
6.24015535e-14
4.545491379e-14
3.310283786e-14
2.409969863e-14
1.75382294e-14
1.275721601e-14
9.27454719e-15
6.73858831e-15
4.892820139e-15
3.550096687e-15
2.573888845e-15
1.864608074e-15
1.3496285e-15
9.760041475e-16
7.051517835e-16
5.089682168e-16
3.669949486e-16
2.643477927e-16
1.902053412e-16
1.367057259e-16
9.814167151e-17
7.037344752e-17
5.040095121e-17
3.605196874e-17
2.575521826e-17
1.83752336e-17
1.30923297e-17
9.315411421e-18
6.618693737e-18
4.695816978e-18
3.32660681e-18
2.353017979e-18
1.661742192e-18
1.171647294e-18
8.247155086e-19
5.795134261e-19
4.064917727e-19
2.846062823e-19
1.988913358e-19
1.387198678e-19
9.655709502e-20
6.706906526e-20
4.648589724e-20
3.214756342e-20
2.218035997e-20
1.526678649e-20
1.048213135e-20
7.178589039e-21
4.90322585e-21
3.340000065e-21
2.268850956e-21
1.536884737e-21
1.038113633e-21
6.992408624e-22
4.697017751e-22
3.147039698e-22
2.10372748e-22
1.40370927e-22
9.355233285e-23
6.233629864e-23
4.158374902e-23
2.782271473e-23
1.871613008e-23
1.269678577e-23
8.717897208e-24
6.08308207e-24
4.330908259e-24
3.157118198e-24
2.361821526e-24
1.814458283e-24
1.429989868e-24
1.153169098e-24
9.482886471e-25
7.921758579e-25
6.698732579e-25
5.716719165e-25
4.911286892e-25
4.239640419e-25
3.672386393e-25
3.188889478e-25
2.774365308e-25
2.41769691e-25
2.109820359e-25
1.843666079e-25
1.613396395e-25
1.414006956e-25
1.241208021e-25
1.091500997e-25
9.614632289e-26
8.486361844e-26
7.506103382e-26
6.653604315e-26
5.910187164e-26
5.261573045e-26
4.693967413e-26
4.197301239e-26
3.761562805e-26
3.378420723e-26
3.040484671e-26
2.742428672e-26
2.478710574e-26
2.245466403e-26
2.037991416e-26
1.853273893e-26
1.688360679e-26
1.540748098e-26
1.408824816e-26
1.290318942e-26
1.183822786e-26
1.087954276e-26
1.001455023e-26
9.231460873e-27
8.522532105e-27
7.879597204e-27
7.295063793e-27
6.762765508e-27
6.277562384e-27
5.833952792e-27
5.427932931e-27
5.056361369e-27
4.7156611e-27
4.401953491e-27
4.114435338e-27
3.849783967e-27
3.60571025e-27
3.380208719e-27
3.171457699e-27
2.977940219e-27
2.798601857e-27
2.632263674e-27
2.477512628e-27
2.333768319e-27
2.199871783e-27
2.07517475e-27
1.95879851e-27
1.84999508e-27
1.748534353e-27
1.653741841e-27
1.564951553e-27
1.481911168e-27
1.404007818e-27
1.330852238e-27
1.262227549e-27
1.197830359e-27
1.137383321e-27
1.080473254e-27
1.026783753e-27
9.761863412e-28
9.284517625e-28
8.834164665e-28
8.409025539e-28
8.008249871e-28
7.630037795e-28
7.272213424e-28
6.93428801e-28
6.614359574e-28
6.311223877e-28
6.023849897e-28
5.751991999e-28
5.493769906e-28
5.249215765e-28
5.016519774e-28
4.796382041e-28
4.587279671e-28
4.388500453e-28
4.199748114e-28
4.020171061e-28
3.849875188e-28
3.687640383e-28
3.533122097e-28
3.385870035e-28
3.245558761e-28
3.11203222e-28
2.984748455e-28
2.863339024e-28
2.747478946e-28
2.637021227e-28
2.531526855e-28
2.430910211e-28
2.334847746e-28
2.243274021e-28
2.155508883e-28
2.071548297e-28
1.991524807e-28
1.914895522e-28
1.841646643e-28
1.77155308e-28
1.704528257e-28
1.640410511e-28
1.57900888e-28
1.520235417e-28
1.463966106e-28
1.409878392e-28
1.358069577e-28
1.308389062e-28
1.260844188e-28
1.215156362e-28
1.171511226e-28
1.129591154e-28
1.089278289e-28
1.050650531e-28
1.013573883e-28
9.779129935e-29
9.435865774e-29
9.106043335e-29
8.789623908e-29
8.486218501e-29
8.194859527e-29
7.914684121e-29
7.644368311e-29
7.384327176e-29
7.134316573e-29
6.895074871e-29
6.664626958e-29
6.442719242e-29
6.228861155e-29
6.022934878e-29
5.824271734e-29
5.63181439e-29
5.446654744e-29
5.268412545e-29
5.096487886e-29
4.931074548e-29
4.772036293e-29
4.618387696e-29
4.470073828e-29
4.326848673e-29
4.18892576e-29
4.056219244e-29
3.928249645e-29
3.804506123e-29
3.684866985e-29
3.569781496e-29
3.458509256e-29
3.351028794e-29
3.247128409e-29
3.146760699e-29
3.049921718e-29
2.956142545e-29
2.865370994e-29
2.777833458e-29
2.693056417e-29
2.611036261e-29
2.531579562e-29
2.455003279e-29
2.380887868e-29
2.309224306e-29
2.239983914e-29
2.173277955e-29
2.108758474e-29
2.046398864e-29
1.985854522e-29
1.927229396e-29
1.87035426e-29
1.815192487e-29
1.761892643e-29
1.710285923e-29
1.660434293e-29
1.612127123e-29
1.565097164e-29
1.51971528e-29
1.475735173e-29
1.433234944e-29
1.392107595e-29
1.352119382e-29
1.313310074e-29
1.27575339e-29
1.239209736e-29
1.203928706e-29
1.169581831e-29
1.136267801e-29
1.104010375e-29
1.072802095e-29
1.042417509e-29
1.013012858e-29
9.84575569e-30
9.568655738e-30
9.29937663e-30
9.039591339e-30
8.788353494e-30
8.543653051e-30
8.306910553e-30
8.078411275e-30
7.856294458e-30
7.63795067e-30
7.426939582e-30
7.222368894e-30
7.02391879e-30
6.830335643e-30
6.64236263e-30
6.459653928e-30
6.282243678e-30
6.110271544e-30
5.943025813e-30
5.780834289e-30
5.622797852e-30
5.469806061e-30
5.321741183e-30
5.177908691e-30
5.038094252e-30
4.902038869e-30
4.76998766e-30
4.640898706e-30
4.515716114e-30
4.393628341e-30
4.275662831e-30
4.161666066e-30
4.050930151e-30
3.94233092e-30
3.836506928e-30
3.733657601e-30
3.633901872e-30
3.537053005e-30
3.443107379e-30
3.351342808e-30
3.262398892e-30
3.175583492e-30
3.090772706e-30
3.00845285e-30
2.929078539e-30
2.851714323e-30
2.776614814e-30
2.70378824e-30
2.63316031e-30
2.563510726e-30
2.495500072e-30
2.429786515e-30
2.365893406e-30
2.30384138e-30
2.243434345e-30
2.184721537e-30
2.127465675e-30
2.072009549e-30
2.017979329e-30
1.965638871e-30
1.914452764e-30
1.863853855e-30
1.814887744e-30
1.767961961e-30
1.722768784e-30
1.678855191e-30
1.635697693e-30
1.594153371e-30
1.553224504e-30
1.512864282e-30
1.473782039e-30
1.436002629e-30
1.399285686e-30
1.363075918e-30
1.32830052e-30
1.294660817e-30
1.261422115e-30
1.228679473e-30
1.196892512e-30
1.165959815e-30
1.135267831e-30
1.106022354e-30
1.077488515e-30
1.049800158e-30
1.022678277e-30
9.962642489e-31
9.703165967e-31
9.45358997e-31
9.213936541e-31
8.980864564e-31
8.756795058e-31
8.534913263e-31
8.316802112e-31
8.104577494e-31
7.899186683e-31
7.698652567e-31
7.501687775e-31
7.309483022e-31
7.123888403e-31
6.945123994e-31
6.76892756e-31
6.598762679e-31
6.435609841e-31
6.27726177e-31
6.117963523e-31
5.964909119e-31
5.816774095e-31
5.672383543e-31
5.531914798e-31
5.395157683e-31
5.258772302e-31
5.124057529e-31
4.989098501e-31
4.862177371e-31
4.738069929e-31
4.616939726e-31
4.500543933e-31
4.387704795e-31
4.279851463e-31
4.172424827e-31
4.06736778e-31
3.968856285e-31
3.870003218e-31
3.774686279e-31
3.684194449e-31
3.595331789e-31
3.50603563e-31
3.420863608e-31
3.336333926e-31
3.249951008e-31
3.167792811e-31
3.086489534e-31
3.009160956e-31
2.933827245e-31
2.861412361e-31
2.78868169e-31
2.718327638e-31
2.648280285e-31
2.580077454e-31
2.516681066e-31
2.456928024e-31
2.396899344e-31
2.339718119e-31
2.284143313e-31
2.225660575e-31
2.169099572e-31
2.115794698e-31
2.061194273e-31
2.010331385e-31
1.958744875e-31
1.906336146e-31
1.858283375e-31
1.811630942e-31
1.765855223e-31
1.72231876e-31
1.679225053e-31
1.635610998e-31
1.59781549e-31
1.559789702e-31
1.518852657e-31
1.479394706e-31
1.442652715e-31
1.407330964e-31
1.373110931e-31
1.340532057e-31
1.309861709e-31
1.279553938e-31
1.248649011e-31
1.219223352e-31
1.188495236e-31
1.156842999e-31
1.12403338e-31
1.094928532e-31
1.069627235e-31
1.048796135e-31
1.024456306e-31
9.996559833e-32
9.720496224e-32
9.448260676e-32
9.2108242e-32
8.963967514e-32
8.740478301e-32
8.527530293e-32
8.29997533e-32
8.087361055e-32
7.88047502e-32
7.664111432e-32
5.875376965e-32
4.176030392e-32
3.146330415e-32
2.278597097e-32
1.524579418e-32
1.052581959e-32
7.484221708e-33
5.088353783e-33
2.602766721e-33
2.306453826e-33
1.832002961e-33
1.401888259e-33
9.332310398e-34
6.903567639e-34
6.052284448e-34
1.14770628e-34
1.209827003e-34
1.8292275e-35
2.009823139e-34
1.639223487e-34
6.18241002e-35
2.733725853e-36
1.659428964e-34
1.210844923e-35
2.902998024e-35
1.017065522e-35
3.247965363e-35
1.241089299e-35
1.263236909e-36
2.967188974e-36
0
4.796718003e-36
2.898052062e-36
2.000239066e-37
4.076796287e-36
6.179998736e-36
0
0
9.806200233e-38
4.677881022e-36
5.418896189e-37
1.664804589e-37
2.062628242e-35
1.466946434e-35
6.132697355e-37
7.142819247e-36
4.319937049e-38
0
0
2.1606156e-35
1.323050542e-35
7.295015238e-37
2.233487916e-37
1.808239927e-35
2.671771028e-35
9.624069612e-36
0
3.234940082e-35
3.178014142e-35
1.08236891e-35
2.650211431e-37
1.181059278e-35
5.482212476e-36
0
0
1.174203243e-36
2.890380018e-37
5.610004881e-38
3.564071784e-37
2.688470164e-37
1.866963029e-36
0
3.062263371e-36
4.761727488e-36
1.844052958e-36
0
3.753916916e-36
0
1.865335206e-38
1.8914605e-36
8.983277975e-36
0
2.208617593e-36
1.845179534e-36
0
8.168453725e-37
4.627457778e-37
1.87937098e-38
4.423869559e-37
5.723701602e-37
4.542220367e-37
6.268157354e-37
2.995218276e-37
4.204656106e-37
0
2.313874526e-39
2.909352599e-37
0
1.584196338e-37
3.440519676e-39
2.847355196e-38
3.958641046e-38
3.267900012e-38
0
0
0
3.104600402e-38
0
3.307968087e-37
6.594221453e-39
6.731715655e-40
1.095380617e-38
2.452658775e-38
4.621610321e-38
7.509729727e-38
0
7.333469486e-38
0
0
6.187793476e-38
4.235720236e-38
7.761204127e-39
5.812997134e-39
5.562418773e-39
8.070932486e-38
0
6.506234729e-38
0
4.857574096e-39
0
0
8.145764418e-39
0
6.2723358e-38
3.714725178e-38
3.636634965e-38
0
0
0
1.933181976e-37
0
3.246099631e-38
0
4.66115933e-37
1.027629547e-37
5.394546645e-38
3.589588521e-37
7.797100289e-38
2.872194452e-38
2.192450012e-37
0
9.459231247e-38
1.846136845e-37
8.028721294e-37
1.153068325e-38
0
0
7.8127648e-37
9.808462801e-37
3.133808005e-37
6.233162973e-38
3.663680091e-39
2.347369993e-37
1.277092052e-37
4.342601803e-37
1.640223043e-37
4.175705068e-37
4.762711459e-37
4.476563407e-37
5.815778357e-37
1.133252779e-37
3.431343422e-37
1.623900071e-37
3.647182522e-37
6.537171687e-37
1.904800351e-37
1.774842036e-37
0
9.543115848e-38
2.149777818e-38
9.837499064e-40
7.392661582e-38
7.030581923e-38
4.173167019e-37
3.095000862e-37
0
1.723233908e-37
4.372788246e-37
1.522845201e-38
6.802924507e-37
4.407391858e-38
5.48090861e-37
9.117581924e-38
3.763501753e-38
9.951970643e-38
4.525328052e-39
0
7.602532071e-41
3.999264102e-38
1.13620535e-37
4.305202871e-37
9.348380231e-38
4.976524954e-37
4.700539639e-37
6.155768903e-38
1.618955013e-37
3.106384926e-37
1.051899459e-37
3.754042343e-37
0
1.369224386e-40
0
9.632723411e-38
0
5.855614995e-37
2.113770767e-37
7.751381579e-38
0
7.170205757e-42
3.668797627e-40
1.854012811e-39
1.798799882e-37
1.002558204e-38
2.884181891e-38
2.052512449e-40
1.998246481e-39
0
0
2.008263844e-38
3.159295162e-38
5.357474218e-38
1.011924776e-39
1.221988497e-38
3.148024906e-40
9.163940115e-38
1.17759623e-39
3.202553887e-37
8.973487324e-38
2.022354817e-37
1.670575998e-39
2.344896241e-39
1.272940249e-37
1.104257965e-37
0
4.292602953e-38
0
2.410023145e-37
0
0
3.617723654e-38
)
;

boundaryField
{
    inlet
    {
        type            fixedValue;
        value           uniform 0;
    }
    outlet
    {
        type            zeroGradient;
    }
    wall
    {
        type            empty;
    }
}


// ************************************************************************* //
