/*--------------------------------*- C++ -*----------------------------------*\
  =========                 |
  \\      /  F ield         | OpenFOAM: The Open Source CFD Toolbox
   \\    /   O peration     | Website:  https://openfoam.org
    \\  /    A nd           | Version:  7
     \\/     M anipulation  |
\*---------------------------------------------------------------------------*/
FoamFile
{
    version     2.0;
    format      ascii;
    class       volScalarField;
    location    "0.000558243009";
    object      C4H8-1_0;
}
// * * * * * * * * * * * * * * * * * * * * * * * * * * * * * * * * * * * * * //

dimensions      [0 0 0 0 0 0 0];

internalField   nonuniform List<scalar> 
1500
(
1.208235668e-14
4.710105593e-14
9.696285483e-14
1.450046612e-13
1.803980315e-13
2.017197747e-13
2.126382057e-13
2.175067387e-13
2.194293642e-13
2.201108204e-13
2.203300252e-13
2.203946231e-13
2.204122031e-13
2.204166517e-13
2.204177045e-13
2.204179387e-13
2.204179879e-13
2.204179977e-13
2.204179996e-13
2.204179999e-13
2.20418e-13
2.20418e-13
2.20418e-13
2.20418e-13
2.20418e-13
2.20418e-13
2.20418e-13
2.20418e-13
2.20418e-13
2.20418e-13
2.20418e-13
2.20418e-13
2.20418e-13
2.20418e-13
2.20418e-13
2.20418e-13
2.20418e-13
2.20418e-13
2.20418e-13
2.20418e-13
2.20418e-13
2.20418e-13
2.20418e-13
2.20418e-13
2.20418e-13
2.20418e-13
2.20418e-13
2.20418e-13
2.20418e-13
2.20418e-13
2.20418e-13
2.20418e-13
2.20418e-13
2.20418e-13
2.20418e-13
2.20418e-13
2.20418e-13
2.20418e-13
2.20418e-13
2.20418e-13
2.20418e-13
2.20418e-13
2.20418e-13
2.20418e-13
2.20418e-13
2.20418e-13
2.20418e-13
2.20418e-13
2.20418e-13
2.20418e-13
2.20418e-13
2.20418e-13
2.20418e-13
2.20418e-13
2.20418e-13
2.20418e-13
2.20418e-13
2.20418e-13
2.20418e-13
2.20418e-13
2.20418e-13
2.20418e-13
2.20418e-13
2.20418e-13
2.20418e-13
2.20418e-13
2.20418e-13
2.20418e-13
2.20418e-13
2.20418e-13
2.20418e-13
2.20418e-13
2.20418e-13
2.20418e-13
2.20418e-13
2.20418e-13
2.20418e-13
2.20418e-13
2.20418e-13
2.20418e-13
2.20418e-13
2.20418e-13
2.20418e-13
2.20418e-13
2.20418e-13
2.20418e-13
2.20418e-13
2.20418e-13
2.20418e-13
2.20418e-13
2.20418e-13
2.20418e-13
2.20418e-13
2.20418e-13
2.20418e-13
2.20418e-13
2.20418e-13
2.20418e-13
2.20418e-13
2.20418e-13
2.20418e-13
2.20418e-13
2.20418e-13
2.20418e-13
2.20418e-13
2.20418e-13
2.20418e-13
2.20418e-13
2.20418e-13
2.20418e-13
2.20418e-13
2.20418e-13
2.20418e-13
2.20418e-13
2.20418e-13
2.20418e-13
2.20418e-13
2.20418e-13
2.20418e-13
2.20418e-13
2.20418e-13
2.20418e-13
2.20418e-13
2.20418e-13
2.20418e-13
2.20418e-13
2.20418e-13
2.20418e-13
2.20418e-13
2.20418e-13
2.20418e-13
2.20418e-13
2.20418e-13
2.20418e-13
2.20418e-13
2.20418e-13
2.20418e-13
2.20418e-13
2.20418e-13
2.20418e-13
2.20418e-13
2.20418e-13
2.20418e-13
2.20418e-13
2.20418e-13
2.20418e-13
2.20418e-13
2.20418e-13
2.20418e-13
2.20418e-13
2.20418e-13
2.20418e-13
2.20418e-13
2.20418e-13
2.20418e-13
2.20418e-13
2.20418e-13
2.20418e-13
2.20418e-13
2.20418e-13
2.20418e-13
2.20418e-13
2.20418e-13
2.20418e-13
2.20418e-13
2.20418e-13
2.20418e-13
2.20418e-13
2.20418e-13
2.20418e-13
2.20418e-13
2.20418e-13
2.20418e-13
2.20418e-13
2.20418e-13
2.20418e-13
2.20418e-13
2.20418e-13
2.20418e-13
2.20418e-13
2.20418e-13
2.20418e-13
2.20418e-13
2.20418e-13
2.20418e-13
2.20418e-13
2.20418e-13
2.20418e-13
2.20418e-13
2.20418e-13
2.20418e-13
2.20418e-13
2.20418e-13
2.20418e-13
2.20418e-13
2.20418e-13
2.20418e-13
2.20418e-13
2.20418e-13
2.20418e-13
2.20418e-13
2.20418e-13
2.20418e-13
2.20418e-13
2.20418e-13
2.20418e-13
2.20418e-13
2.20418e-13
2.20418e-13
2.20418e-13
2.20418e-13
2.20418e-13
2.20418e-13
2.20418e-13
2.20418e-13
2.20418e-13
2.20418e-13
2.204180001e-13
2.204180004e-13
2.204180015e-13
2.204180059e-13
2.204180229e-13
2.204180844e-13
2.204182898e-13
2.204189233e-13
2.204207101e-13
2.204252683e-13
2.204355767e-13
2.204554123e-13
2.204843861e-13
2.204928892e-13
2.204957198e-13
2.20498664e-13
2.205017268e-13
2.20504912e-13
2.20508224e-13
2.205116676e-13
2.205152482e-13
2.205189717e-13
2.205228442e-13
2.205268721e-13
2.205310622e-13
2.205354214e-13
2.20539957e-13
2.205446766e-13
2.205495882e-13
2.205547003e-13
2.205600217e-13
2.205655615e-13
2.205713296e-13
2.20577336e-13
2.205835914e-13
2.205901072e-13
2.205968949e-13
2.206039672e-13
2.206113369e-13
2.206190178e-13
2.206270242e-13
2.206353714e-13
2.206440754e-13
2.206531529e-13
2.206626217e-13
2.206725004e-13
2.206828088e-13
2.206935677e-13
2.207047989e-13
2.207165256e-13
2.207287722e-13
2.207415646e-13
2.2075493e-13
2.207688973e-13
2.20783497e-13
2.207987612e-13
2.208147242e-13
2.20831422e-13
2.208488929e-13
2.208671774e-13
2.208863184e-13
2.209063614e-13
2.209273546e-13
2.20949349e-13
2.209723989e-13
2.209965618e-13
2.210218987e-13
2.210484742e-13
2.210763571e-13
2.211056204e-13
2.211363414e-13
2.211686023e-13
2.212024906e-13
2.212380989e-13
2.212755257e-13
2.213148757e-13
2.213562601e-13
2.213997969e-13
2.214456117e-13
2.214938376e-13
2.215446164e-13
2.215980984e-13
2.216544435e-13
2.217138214e-13
2.217764124e-13
2.218424079e-13
2.219120113e-13
2.219854384e-13
2.220629185e-13
2.221446947e-13
2.222310251e-13
2.223221838e-13
2.224184611e-13
2.225201652e-13
2.226276229e-13
2.227411804e-13
2.228612048e-13
2.229880849e-13
2.231222325e-13
2.232640836e-13
2.234140999e-13
2.235727696e-13
2.237406095e-13
2.239181657e-13
2.241060156e-13
2.243047692e-13
2.24515071e-13
2.247376011e-13
2.249730776e-13
2.252222577e-13
2.2548594e-13
2.257649662e-13
2.26060223e-13
2.263726441e-13
2.267032124e-13
2.270529618e-13
2.274229796e-13
2.278144083e-13
2.282284484e-13
2.286663602e-13
2.291294665e-13
2.296191543e-13
2.301368781e-13
2.306841616e-13
2.312626003e-13
2.318738643e-13
2.325197003e-13
2.332019347e-13
2.339224754e-13
2.346833148e-13
2.354865323e-13
2.363342966e-13
2.372288684e-13
2.381726026e-13
2.391679513e-13
2.402174653e-13
2.413237973e-13
2.42489704e-13
2.43718048e-13
2.450118005e-13
2.463740428e-13
2.478079691e-13
2.493168878e-13
2.509042235e-13
2.525735187e-13
2.543284355e-13
2.56172757e-13
2.581103885e-13
2.601453586e-13
2.622818207e-13
2.645240529e-13
2.668764594e-13
2.693435708e-13
2.719300439e-13
2.746406622e-13
2.774803356e-13
2.804540995e-13
2.83567115e-13
2.86824667e-13
2.902321637e-13
2.93795135e-13
2.975192305e-13
3.014102179e-13
3.054739804e-13
3.097165144e-13
3.141439265e-13
3.187624303e-13
3.235783432e-13
3.285980821e-13
3.338281602e-13
3.39275182e-13
3.449458387e-13
3.508469035e-13
3.569852264e-13
3.633677285e-13
3.700013961e-13
3.768932749e-13
3.840504635e-13
3.914801068e-13
3.99189389e-13
4.07185527e-13
4.154757623e-13
4.240673544e-13
4.329675721e-13
4.421836863e-13
4.517229618e-13
4.615926489e-13
4.717999752e-13
4.823521372e-13
4.932562917e-13
5.045195473e-13
5.161489561e-13
5.281515045e-13
5.405341053e-13
5.533035887e-13
5.664666944e-13
5.800300629e-13
5.940002273e-13
6.08383606e-13
6.23186494e-13
6.384150561e-13
6.540753197e-13
6.701731673e-13
6.867143307e-13
7.037043841e-13
7.211487391e-13
7.39052639e-13
7.574211541e-13
7.762591776e-13
7.95571422e-13
8.153624157e-13
8.356365013e-13
8.563978333e-13
8.776503776e-13
8.993979112e-13
9.216440228e-13
9.443921144e-13
9.676454038e-13
9.914069276e-13
1.015679546e-12
1.040465948e-12
1.065768657e-12
1.091590039e-12
1.117932311e-12
1.144797552e-12
1.172187712e-12
1.200104622e-12
1.228550014e-12
1.257525531e-12
1.287032742e-12
1.317073164e-12
1.347648276e-12
1.378759543e-12
1.410408434e-12
1.44259645e-12
1.475325145e-12
1.508596152e-12
1.542411216e-12
1.576772215e-12
1.611681201e-12
1.647140425e-12
1.683152377e-12
1.719719817e-12
1.756845821e-12
1.794533812e-12
1.832787609e-12
1.871611466e-12
1.91101012e-12
1.95098884e-12
1.991553472e-12
2.032710493e-12
2.074467065e-12
2.116831091e-12
2.159811269e-12
2.203417156e-12
2.247659225e-12
2.292548934e-12
2.338098788e-12
2.384322409e-12
2.431234606e-12
2.478851446e-12
2.527190331e-12
2.576270076e-12
2.626110984e-12
2.676734933e-12
2.728165455e-12
2.780427828e-12
2.83354916e-12
2.887558483e-12
2.942486846e-12
2.998367413e-12
3.055235561e-12
3.11312898e-12
3.172087782e-12
3.232154607e-12
3.293374741e-12
3.355796204e-12
3.419469926e-12
3.484449816e-12
3.550792876e-12
3.618559353e-12
3.687812865e-12
3.758620532e-12
3.831053122e-12
3.905185185e-12
3.981095198e-12
4.05886571e-12
4.138583491e-12
4.220339679e-12
4.304229944e-12
4.390354644e-12
4.478818969e-12
4.569733149e-12
4.663212612e-12
4.759378184e-12
4.858356256e-12
4.960279018e-12
5.065284658e-12
5.173517527e-12
5.285128369e-12
5.400274552e-12
5.5191203e-12
5.641836933e-12
5.76860312e-12
5.899605129e-12
6.035037104e-12
6.17510134e-12
6.320008577e-12
6.469978304e-12
6.625239075e-12
6.78602884e-12
6.952595293e-12
7.125196237e-12
7.304099959e-12
7.489585632e-12
7.681943734e-12
7.881476487e-12
8.088498323e-12
8.303336376e-12
8.526330996e-12
8.757836302e-12
8.998220764e-12
9.247867828e-12
9.507176577e-12
9.776562446e-12
1.005645799e-11
1.034731372e-11
1.064959899e-11
1.096380301e-11
1.129043588e-11
1.163002987e-11
1.198314067e-11
1.235034893e-11
1.273226195e-11
1.31295156e-11
1.354277652e-11
1.397274465e-11
1.442015624e-11
1.488578726e-11
1.537045754e-11
1.587503558e-11
1.640044436e-11
1.694766829e-11
1.751776154e-11
1.811185822e-11
1.873118456e-11
1.937707401e-11
2.005098542e-11
2.07545255e-11
2.148947627e-11
2.225782889e-11
2.30618253e-11
2.390400949e-11
2.478729092e-11
2.571502279e-11
2.669109887e-11
2.772007326e-11
2.880730881e-11
2.995916077e-11
3.11832045e-11
3.248851768e-11
3.388603021e-11
3.538895812e-11
3.701334178e-11
3.877871353e-11
4.070892599e-11
4.283317974e-11
4.518729855e-11
4.78153117e-11
5.077141759e-11
5.412242043e-11
5.795075409e-11
6.235823456e-11
6.747071654e-11
7.3443872e-11
8.047036072e-11
8.878872805e-11
9.869444549e-11
1.105536095e-10
1.248199383e-10
1.420558584e-10
1.629586657e-10
1.883929773e-10
2.194309877e-10
2.574023988e-10
3.039563471e-10
3.611382009e-10
4.314847913e-10
5.181424884e-10
6.250135852e-10
7.569377549e-10
9.199169518e-10
1.121394114e-09
1.370598482e-09
1.67897337e-09
2.06070597e-09
2.533383381e-09
3.118804706e-09
3.84398608e-09
4.742404058e-09
5.855533343e-09
7.234747787e-09
8.943669454e-09
1.10610699e-08
1.368445157e-08
1.693446593e-08
2.096036024e-08
2.594668717e-08
3.212156309e-08
3.976682267e-08
4.923049197e-08
6.094209096e-08
7.543138236e-08
9.335130843e-08
1.155060045e-07
1.42884949e-07
1.767045075e-07
2.184583541e-07
2.699785081e-07
3.335090072e-07
4.117945459e-07
5.081867357e-07
6.267709803e-07
7.7251729e-07
9.514586655e-07
1.170900927e-06
1.439668027e-06
1.768386902e-06
2.169815745e-06
2.659219167e-06
3.254792999e-06
3.978140359e-06
4.854799167e-06
5.914819326e-06
7.193385511e-06
8.731478851e-06
1.057656796e-05
1.278331697e-05
1.541429561e-05
1.854067443e-05
2.224288693e-05
2.661124048e-05
3.174645881e-05
3.776014148e-05
4.47751292e-05
5.292576834e-05
6.235807276e-05
7.32297862e-05
8.571035289e-05
9.998080856e-05
0.0001162336081
0.0001346724083
0.0001555118377
0.0001789772655
0.0002053046281
0.0002347403422
0.0002675413821
0.0003039756387
0.0003443227726
0.0003888759752
0.0004379162932
0.0004918425674
0.0005508371175
0.0006157628617
0.0006870641719
0.0007653877591
0.0008488601087
0.0009392636917
0.001036791287
0.001141078964
0.001250586918
0.001361957568
0.001470204001
0.001570430354
0.00165905003
0.001733462807
0.001791035585
0.00182980171
0.001844531903
0.0018323322
0.001789323141
0.001711304333
0.001598877599
0.001452563767
0.001277574641
0.001083240035
0.000882941106
0.0006904067658
0.000517895251
0.0003736914349
0.0002608525092
0.0001776091186
0.000118868065
7.905611208e-05
5.239258727e-05
3.487613379e-05
2.331951926e-05
1.567279938e-05
1.059105395e-05
7.197727668e-06
4.906877146e-06
3.347364723e-06
2.291825552e-06
1.57459221e-06
1.08529104e-06
7.502793034e-07
5.200965585e-07
3.61407914e-07
2.516011985e-07
1.755237003e-07
1.233737994e-07
8.69260876e-08
6.118382357e-08
4.316806125e-08
3.05205658e-08
2.161662059e-08
1.533289857e-08
1.088923541e-08
7.742894924e-09
5.50998309e-09
3.924138497e-09
2.796648312e-09
1.994288129e-09
1.422836184e-09
1.01555127e-09
7.250932637e-10
5.17842719e-10
3.698983737e-10
2.64251573e-10
1.887881904e-10
1.34873599e-10
9.634917478e-11
6.881976928e-11
4.91472161e-11
3.508993e-11
2.504622525e-11
1.787135507e-11
1.274700455e-11
9.088140501e-12
6.476488675e-12
4.613005055e-12
3.283905008e-12
2.336375493e-12
1.661206315e-12
1.180367387e-12
8.381227628e-13
5.946743639e-13
4.216153927e-13
2.986785228e-13
2.114104877e-13
1.495094956e-13
1.056368452e-13
7.45677552e-14
5.258479514e-14
3.704478415e-14
2.606968529e-14
1.832610423e-14
1.286807722e-14
9.025046624e-15
6.322084555e-15
4.423118051e-15
3.090551755e-15
2.15657296e-15
1.50277446e-15
1.045695666e-15
7.265716639e-16
5.040719164e-16
3.491613533e-16
2.414669431e-16
1.66711225e-16
1.149013383e-16
7.905250511e-17
5.428922802e-17
3.721315937e-17
2.545904762e-17
1.738318416e-17
1.184509146e-17
8.054748808e-18
5.465826715e-18
3.701179858e-18
2.500927963e-18
1.686331768e-18
1.134698379e-18
7.619770742e-19
5.107092022e-19
3.41699825e-19
2.282721387e-19
1.523112457e-19
1.015454076e-19
6.768153772e-20
4.512925648e-20
3.01296655e-20
2.016184494e-20
1.353949657e-20
9.13751842e-21
6.207124292e-21
4.251167202e-21
2.94030446e-21
2.056774946e-21
1.45681935e-21
1.045621288e-21
7.606594883e-22
5.606741844e-22
4.183820317e-22
3.156778227e-22
2.404801358e-22
1.846654686e-22
1.427187242e-22
1.108485889e-22
8.641168425e-23
6.753608853e-23
5.287340337e-23
4.143619514e-23
3.248961378e-23
2.547872057e-23
1.997970283e-23
1.566526028e-23
1.228083305e-23
9.627230902e-24
7.548095332e-24
5.920298192e-24
4.64678869e-24
3.651138241e-24
2.87307494e-24
2.265226056e-24
1.790301713e-24
1.419209168e-24
1.128971676e-24
9.017238182e-25
7.235375731e-25
5.835517911e-25
4.732851283e-25
3.861478508e-25
3.170445812e-25
2.620194734e-25
2.180165642e-25
1.82633308e-25
1.540292006e-25
1.307775034e-25
1.117564901e-25
9.610132356e-26
8.311784125e-26
7.22857786e-26
6.319377375e-26
5.552107039e-26
4.900171202e-26
4.342999177e-26
3.864345471e-26
3.451065507e-26
3.092074568e-26
2.778603796e-26
2.504505197e-26
2.263347828e-26
2.050823304e-26
1.862229216e-26
1.694607465e-26
1.544786435e-26
1.411365279e-26
1.29218824e-26
1.185075837e-26
1.088822414e-26
1.002009913e-26
9.235156713e-27
8.52526963e-27
7.88120598e-27
7.294873489e-27
6.761911346e-27
6.276074232e-27
5.831783328e-27
5.425115366e-27
5.053469396e-27
4.712774207e-27
4.399627985e-27
4.112314263e-27
3.847235349e-27
3.602961798e-27
3.377261298e-27
3.168242361e-27
2.974607862e-27
2.795467952e-27
2.629009097e-27
2.474461799e-27
2.33097755e-27
2.197482587e-27
2.073044046e-27
1.956901919e-27
1.848356101e-27
1.747221807e-27
1.652538702e-27
1.564024313e-27
1.481018287e-27
1.403205825e-27
1.330163155e-27
1.26147344e-27
1.196960525e-27
1.136267878e-27
1.079272874e-27
1.025614908e-27
9.75082226e-28
9.274169589e-28
8.825576838e-28
8.402046809e-28
8.002696206e-28
7.624736916e-28
7.267772804e-28
6.929295898e-28
6.60892915e-28
6.305992513e-28
6.018832793e-28
5.746598121e-28
5.488718832e-28
5.243862231e-28
5.012208665e-28
4.792572753e-28
4.583964563e-28
4.385564724e-28
4.19712652e-28
4.017583747e-28
3.846938726e-28
3.684731779e-28
3.530090226e-28
3.38296947e-28
3.243038468e-28
3.109850877e-28
2.982662601e-28
2.86131599e-28
2.74550811e-28
2.635047505e-28
2.529656115e-28
2.429272198e-28
2.333466078e-28
2.241747637e-28
2.154056966e-28
2.070371307e-28
1.990504e-28
1.914010624e-28
1.840929922e-28
1.770942266e-28
1.704067924e-28
1.639879695e-28
1.578410824e-28
1.519553096e-28
1.463255876e-28
1.409335438e-28
1.357683604e-28
1.308002928e-28
1.260506635e-28
1.215018329e-28
1.17128614e-28
1.129328007e-28
1.089024028e-28
1.050359732e-28
1.013221877e-28
9.775407232e-29
9.432992403e-29
9.103900211e-29
8.788144767e-29
8.484734444e-29
8.193274681e-29
7.912976477e-29
7.64283255e-29
7.382300103e-29
7.131747888e-29
6.891440194e-29
6.660447752e-29
6.438264327e-29
6.225300513e-29
6.019177084e-29
5.820427516e-29
5.629090192e-29
5.444125443e-29
5.266498631e-29
5.095251215e-29
4.929844849e-29
4.770275924e-29
4.616780481e-29
4.468808823e-29
4.32654105e-29
4.188774517e-29
4.056190383e-29
3.928047617e-29
3.804244953e-29
3.684915441e-29
3.569435916e-29
3.458032699e-29
3.350615642e-29
3.246948963e-29
3.14660479e-29
3.049451995e-29
2.955771589e-29
2.865051477e-29
2.777362398e-29
2.692596168e-29
2.61075217e-29
2.531707165e-29
2.455434373e-29
2.38159248e-29
2.31006558e-29
2.241106147e-29
2.174145483e-29
2.109505771e-29
2.046880249e-29
1.986328312e-29
1.927689099e-29
1.871010627e-29
1.816021258e-29
1.76270865e-29
1.711056467e-29
1.661038463e-29
1.612533022e-29
1.565883078e-29
1.520200158e-29
1.476185564e-29
1.433488472e-29
1.392092967e-29
1.352191733e-29
1.313321165e-29
1.275529262e-29
1.239119516e-29
1.203849753e-29
1.169584885e-29
1.136339936e-29
1.104197672e-29
1.072866879e-29
1.042498126e-29
1.013052819e-29
9.845221044e-30
9.568955696e-30
9.300561709e-30
9.039947921e-30
8.788834092e-30
8.54404682e-30
8.306976566e-30
8.078350023e-30
7.855174331e-30
7.638564474e-30
7.426794283e-30
7.221847875e-30
7.022221942e-30
6.827868337e-30
6.641068035e-30
6.459489972e-30
6.283044649e-30
6.110517179e-30
5.943531709e-30
5.780436505e-30
5.62335094e-30
5.47075639e-30
5.323332926e-30
5.178660896e-30
5.037956031e-30
4.900821594e-30
4.767714539e-30
4.638980166e-30
4.514335641e-30
4.393758474e-30
4.276825248e-30
4.16279535e-30
4.051964678e-30
3.943847088e-30
3.838030256e-30
3.735178792e-30
3.635364829e-30
3.538561525e-30
3.444368159e-30
3.352185211e-30
3.262471071e-30
3.175859479e-30
3.091198676e-30
3.008873956e-30
2.928928025e-30
2.851096755e-30
2.775113464e-30
2.702067476e-30
2.630671541e-30
2.561936263e-30
2.494856233e-30
2.429681362e-30
2.366231151e-30
2.304324014e-30
2.244528239e-30
2.186655901e-30
2.129622831e-30
2.074324776e-30
2.020469493e-30
1.968136454e-30
1.91689378e-30
1.86712928e-30
1.818455218e-30
1.771363034e-30
1.725289774e-30
1.680658494e-30
1.637473787e-30
1.595568958e-30
1.554152604e-30
1.513665828e-30
1.4742264e-30
1.436317868e-30
1.399898154e-30
1.363692597e-30
1.328863004e-30
1.294487515e-30
1.261119413e-30
1.228316296e-30
1.196366804e-30
1.165571424e-30
1.135786336e-30
1.107096031e-30
1.078507837e-30
1.051127141e-30
1.024356094e-30
9.979494975e-31
9.72169732e-31
9.472873765e-31
9.232184314e-31
8.996328045e-31
8.763553413e-31
8.537898361e-31
8.318999504e-31
8.105702073e-31
7.902190214e-31
7.701018397e-31
7.502570115e-31
7.310771582e-31
7.125915655e-31
6.945808131e-31
6.771201301e-31
6.598869485e-31
6.43363762e-31
6.276397477e-31
6.121878409e-31
5.971144973e-31
5.82104891e-31
5.674892062e-31
5.528149717e-31
5.386034908e-31
5.247511858e-31
5.116717626e-31
4.988740346e-31
4.864277004e-31
4.743005638e-31
4.628278249e-31
4.516172494e-31
4.400476849e-31
4.287304295e-31
4.179663417e-31
4.077638228e-31
3.978088203e-31
3.877877702e-31
3.78217636e-31
3.688537206e-31
3.595876363e-31
3.50410231e-31
3.417650246e-31
3.334048853e-31
3.251206024e-31
3.167423713e-31
3.083659955e-31
3.00216728e-31
2.927434359e-31
2.853955116e-31
2.781798136e-31
2.712996646e-31
2.645579244e-31
2.579922624e-31
2.517664678e-31
2.456438508e-31
2.394718705e-31
2.334458454e-31
2.278788217e-31
2.22020419e-31
2.165196018e-31
2.112857427e-31
2.060759702e-31
2.011500072e-31
1.962477672e-31
1.913521219e-31
1.866810985e-31
1.820007658e-31
1.772762433e-31
1.729145053e-31
1.683673553e-31
1.638172052e-31
1.594312414e-31
1.55575523e-31
1.517151623e-31
1.477518999e-31
1.441166172e-31
1.405119301e-31
1.37018902e-31
1.339946943e-31
1.3095522e-31
1.279694274e-31
1.249568245e-31
1.218809912e-31
1.18484958e-31
1.152997734e-31
1.126208378e-31
1.096837503e-31
1.070608908e-31
1.04504792e-31
1.017642979e-31
9.919523071e-32
9.687398937e-32
9.457815668e-32
9.223355736e-32
9.015328294e-32
8.762418281e-32
8.545202327e-32
8.331338213e-32
8.086814327e-32
7.832120085e-32
7.597102681e-32
5.946714395e-32
4.230147577e-32
2.903755658e-32
2.269146231e-32
1.563505547e-32
1.165643731e-32
8.007309103e-33
3.937407379e-33
2.325274118e-33
2.559653504e-33
1.70241245e-33
1.771650872e-33
1.053270145e-33
1.014746816e-33
8.241786329e-34
3.487869325e-35
2.996164182e-34
7.207938493e-35
1.970605334e-34
0
8.386941576e-35
1.09049635e-36
1.642075654e-34
1.264862974e-35
3.972391837e-37
0
0
3.353799052e-36
2.434378539e-36
4.4294788e-37
1.116672666e-35
1.349274684e-35
1.00014154e-35
3.756649341e-37
2.649990653e-36
1.618215213e-38
1.534753527e-37
0
0
0
4.464508505e-36
4.11611311e-36
3.35014195e-36
1.476139273e-35
1.348879932e-36
3.298249213e-35
1.909762409e-36
2.730388081e-36
2.910609998e-37
4.385232414e-37
5.810524676e-35
8.254036524e-38
1.160174436e-37
3.564141413e-36
2.219116856e-35
4.569484929e-36
1.614102503e-36
3.538256101e-37
2.162270592e-35
1.737159143e-35
0
2.015951926e-36
1.989476416e-35
3.726068487e-36
0
3.47536319e-36
6.977578525e-37
5.937271894e-38
9.182665508e-37
3.633128813e-36
2.592092067e-36
9.580847112e-37
1.136410562e-35
2.41797115e-37
5.780922235e-36
2.112345957e-36
4.941105522e-36
2.303254834e-36
5.419752304e-36
7.429600696e-36
4.452208853e-36
3.413105882e-36
5.824442711e-36
4.155443027e-36
2.512384288e-37
2.354404597e-36
1.202471162e-36
3.050280457e-39
9.667555298e-39
1.535954369e-36
4.069255615e-36
1.910549997e-36
9.616856773e-37
1.324374331e-36
1.700184886e-37
2.138125865e-39
2.143517864e-37
0
2.828732316e-38
3.839038435e-40
7.362500241e-38
1.047553348e-37
8.803717699e-38
8.633649787e-38
1.760433332e-37
0
3.164408504e-38
7.63544704e-38
1.832633293e-37
2.528728111e-39
1.252667875e-39
2.289353205e-37
1.253053373e-37
1.235473372e-37
1.988125478e-37
3.032292314e-38
2.059726791e-37
0
0
1.664520606e-37
4.804715265e-38
2.933634514e-38
5.264247826e-38
1.761927556e-38
4.496999121e-38
9.064081084e-38
0
0
1.229439106e-38
2.597615164e-38
0
1.98430877e-37
0
1.611356497e-37
1.112168067e-37
1.968795029e-38
2.995783778e-38
0
0
1.001239874e-37
1.87734203e-37
1.598355879e-38
0
1.235173494e-37
7.871031984e-38
3.786594958e-39
6.325047449e-38
1.937604544e-38
2.836277792e-39
0
0
2.159331185e-39
5.747868514e-38
6.163843242e-37
6.70278508e-39
0
0
6.742246019e-37
0
0
0
0
0
5.880734327e-38
3.666707893e-37
5.973478436e-38
8.532065827e-37
0
5.113507192e-38
7.786112097e-38
1.194131975e-37
5.547309159e-38
1.071102759e-37
6.839999784e-38
2.105409431e-37
1.059846973e-37
1.844846882e-37
4.434042704e-38
0
0
0
2.108206583e-37
2.131143718e-37
0
1.14339877e-37
0
1.811998475e-39
5.862331855e-37
2.990034307e-38
1.996421536e-37
1.437061471e-37
1.204089555e-37
2.24918687e-37
1.703718968e-39
3.157560787e-41
1.297376442e-41
0
4.232167485e-40
0
2.91242397e-37
9.378629602e-38
4.346061719e-38
6.017071331e-38
7.052844727e-39
1.492463805e-37
4.342124364e-37
3.385873783e-39
1.68050167e-37
6.826897496e-38
0
0
0
1.4940903e-38
2.532218087e-38
3.160219748e-40
1.227315587e-39
1.085064294e-37
8.697552208e-39
1.422522296e-41
0
0
0
4.697344027e-39
1.088428647e-40
0
0
8.436164507e-39
4.169066296e-38
4.682599734e-38
1.38367747e-37
1.469649566e-37
2.879225096e-39
1.308386872e-39
1.446575349e-38
6.322099785e-38
5.208241083e-40
1.992319747e-37
2.269690021e-37
3.3664007e-37
4.284906583e-40
0
1.508979408e-38
3.147217073e-37
9.372150729e-38
1.128698661e-37
1.387896663e-37
8.163661487e-38
1.134797802e-38
8.232821568e-38
8.343937626e-38
)
;

boundaryField
{
    inlet
    {
        type            fixedValue;
        value           uniform 0;
    }
    outlet
    {
        type            zeroGradient;
    }
    wall
    {
        type            empty;
    }
}


// ************************************************************************* //
