/*--------------------------------*- C++ -*----------------------------------*\
  =========                 |
  \\      /  F ield         | OpenFOAM: The Open Source CFD Toolbox
   \\    /   O peration     | Website:  https://openfoam.org
    \\  /    A nd           | Version:  7
     \\/     M anipulation  |
\*---------------------------------------------------------------------------*/
FoamFile
{
    version     2.0;
    format      ascii;
    class       volScalarField;
    location    "0.000558243009";
    object      C5H11-1_0;
}
// * * * * * * * * * * * * * * * * * * * * * * * * * * * * * * * * * * * * * //

dimensions      [0 0 0 0 0 0 0];

internalField   nonuniform List<scalar> 
1500
(
6.867831462e-18
2.67541941e-17
5.505195626e-17
8.224739573e-17
1.022101603e-16
1.141844412e-16
1.202871704e-16
1.229946889e-16
1.240583131e-16
1.244332741e-16
1.245532245e-16
1.245883752e-16
1.245978869e-16
1.2460028e-16
1.246008431e-16
1.246009677e-16
1.246009937e-16
1.246009988e-16
1.246009998e-16
1.24601e-16
1.24601e-16
1.24601e-16
1.24601e-16
1.24601e-16
1.24601e-16
1.24601e-16
1.24601e-16
1.24601e-16
1.24601e-16
1.24601e-16
1.24601e-16
1.24601e-16
1.24601e-16
1.24601e-16
1.24601e-16
1.24601e-16
1.24601e-16
1.24601e-16
1.24601e-16
1.24601e-16
1.24601e-16
1.24601e-16
1.24601e-16
1.24601e-16
1.24601e-16
1.24601e-16
1.24601e-16
1.24601e-16
1.24601e-16
1.24601e-16
1.24601e-16
1.24601e-16
1.24601e-16
1.24601e-16
1.24601e-16
1.24601e-16
1.24601e-16
1.24601e-16
1.24601e-16
1.24601e-16
1.24601e-16
1.24601e-16
1.24601e-16
1.24601e-16
1.24601e-16
1.24601e-16
1.24601e-16
1.24601e-16
1.24601e-16
1.24601e-16
1.24601e-16
1.24601e-16
1.24601e-16
1.24601e-16
1.24601e-16
1.24601e-16
1.24601e-16
1.24601e-16
1.24601e-16
1.24601e-16
1.24601e-16
1.24601e-16
1.24601e-16
1.24601e-16
1.24601e-16
1.24601e-16
1.24601e-16
1.24601e-16
1.24601e-16
1.24601e-16
1.24601e-16
1.24601e-16
1.24601e-16
1.24601e-16
1.24601e-16
1.24601e-16
1.24601e-16
1.24601e-16
1.24601e-16
1.24601e-16
1.24601e-16
1.24601e-16
1.24601e-16
1.24601e-16
1.24601e-16
1.24601e-16
1.24601e-16
1.24601e-16
1.24601e-16
1.24601e-16
1.24601e-16
1.24601e-16
1.24601e-16
1.24601e-16
1.24601e-16
1.24601e-16
1.24601e-16
1.24601e-16
1.24601e-16
1.24601e-16
1.24601e-16
1.24601e-16
1.24601e-16
1.24601e-16
1.24601e-16
1.24601e-16
1.24601e-16
1.24601e-16
1.24601e-16
1.24601e-16
1.24601e-16
1.24601e-16
1.24601e-16
1.24601e-16
1.24601e-16
1.24601e-16
1.24601e-16
1.24601e-16
1.24601e-16
1.24601e-16
1.24601e-16
1.24601e-16
1.24601e-16
1.24601e-16
1.24601e-16
1.24601e-16
1.24601e-16
1.24601e-16
1.24601e-16
1.24601e-16
1.24601e-16
1.24601e-16
1.24601e-16
1.24601e-16
1.24601e-16
1.24601e-16
1.24601e-16
1.24601e-16
1.24601e-16
1.24601e-16
1.24601e-16
1.24601e-16
1.24601e-16
1.24601e-16
1.24601e-16
1.24601e-16
1.24601e-16
1.24601e-16
1.24601e-16
1.24601e-16
1.24601e-16
1.24601e-16
1.24601e-16
1.24601e-16
1.24601e-16
1.24601e-16
1.24601e-16
1.24601e-16
1.24601e-16
1.24601e-16
1.24601e-16
1.24601e-16
1.24601e-16
1.24601e-16
1.24601e-16
1.24601e-16
1.24601e-16
1.24601e-16
1.24601e-16
1.24601e-16
1.24601e-16
1.24601e-16
1.24601e-16
1.24601e-16
1.24601e-16
1.24601e-16
1.24601e-16
1.24601e-16
1.24601e-16
1.24601e-16
1.24601e-16
1.24601e-16
1.24601e-16
1.24601e-16
1.24601e-16
1.24601e-16
1.24601e-16
1.24601e-16
1.24601e-16
1.24601e-16
1.24601e-16
1.24601e-16
1.24601e-16
1.24601e-16
1.24601e-16
1.24601e-16
1.24601e-16
1.24601e-16
1.24601e-16
1.24601e-16
1.24601e-16
1.24601e-16
1.24601e-16
1.24601e-16
1.24601e-16
1.24601e-16
1.24601e-16
1.24601e-16
1.24601e-16
1.24601e-16
1.24601e-16
1.24601e-16
1.24601e-16
1.24601e-16
1.24601e-16
1.24601e-16
1.24601e-16
1.24601e-16
1.246010001e-16
1.246010004e-16
1.246010015e-16
1.246010064e-16
1.246010254e-16
1.246010943e-16
1.246013243e-16
1.246020239e-16
1.246039404e-16
1.246085696e-16
1.246180143e-16
1.246324258e-16
1.246362828e-16
1.246376564e-16
1.246390864e-16
1.246405753e-16
1.246421249e-16
1.246437373e-16
1.24645415e-16
1.246471608e-16
1.246489777e-16
1.246508685e-16
1.246528367e-16
1.246548854e-16
1.246570181e-16
1.246592385e-16
1.246615503e-16
1.246639575e-16
1.246664643e-16
1.24669075e-16
1.246717942e-16
1.246746265e-16
1.246775771e-16
1.246806511e-16
1.246838541e-16
1.246871918e-16
1.246906702e-16
1.246942956e-16
1.246980748e-16
1.247020147e-16
1.247061226e-16
1.247104062e-16
1.247148736e-16
1.247195333e-16
1.247243943e-16
1.247294659e-16
1.24734758e-16
1.247402811e-16
1.247460461e-16
1.247520646e-16
1.247583487e-16
1.247649113e-16
1.24771766e-16
1.247789269e-16
1.247864091e-16
1.247942287e-16
1.248024023e-16
1.248109477e-16
1.248198838e-16
1.248292304e-16
1.248390084e-16
1.248492401e-16
1.248599491e-16
1.248711602e-16
1.248829e-16
1.248951963e-16
1.249080788e-16
1.249215792e-16
1.249357307e-16
1.249505688e-16
1.249661312e-16
1.249824578e-16
1.249995912e-16
1.250175764e-16
1.250364616e-16
1.250562976e-16
1.250771387e-16
1.250990427e-16
1.251220709e-16
1.251462887e-16
1.251717656e-16
1.251985757e-16
1.252267976e-16
1.252565153e-16
1.25287818e-16
1.25320801e-16
1.253555654e-16
1.253922192e-16
1.25430877e-16
1.254716613e-16
1.255147023e-16
1.255601386e-16
1.256081179e-16
1.256587973e-16
1.257123442e-16
1.257689367e-16
1.258287643e-16
1.258920287e-16
1.259589443e-16
1.260297394e-16
1.261046567e-16
1.26183954e-16
1.262679056e-16
1.263568027e-16
1.264509549e-16
1.265506907e-16
1.26656359e-16
1.267683299e-16
1.268869963e-16
1.270127745e-16
1.27146106e-16
1.272874586e-16
1.274373277e-16
1.27596238e-16
1.277647444e-16
1.279434343e-16
1.281329285e-16
1.28333883e-16
1.28546991e-16
1.287729841e-16
1.290126344e-16
1.292667561e-16
1.295362078e-16
1.298218936e-16
1.301247659e-16
1.304458266e-16
1.307861297e-16
1.311467832e-16
1.315289508e-16
1.319338545e-16
1.323627765e-16
1.328170613e-16
1.332981179e-16
1.338074218e-16
1.343465176e-16
1.349170207e-16
1.355206196e-16
1.36159078e-16
1.368342372e-16
1.375480177e-16
1.383024217e-16
1.390995346e-16
1.399415274e-16
1.408306586e-16
1.417692757e-16
1.427598169e-16
1.438048132e-16
1.449068898e-16
1.46068767e-16
1.472932626e-16
1.48583292e-16
1.499418701e-16
1.513721119e-16
1.52877233e-16
1.544605511e-16
1.561254853e-16
1.578755572e-16
1.597143908e-16
1.616457119e-16
1.636733486e-16
1.658012298e-16
1.680333851e-16
1.703739435e-16
1.728271321e-16
1.753972747e-16
1.780887898e-16
1.809061888e-16
1.838540737e-16
1.869371342e-16
1.901601453e-16
1.935279637e-16
1.970455248e-16
2.007178387e-16
2.045499865e-16
2.085471157e-16
2.12714436e-16
2.170572143e-16
2.215807698e-16
2.262904686e-16
2.31191718e-16
2.362899606e-16
2.415906687e-16
2.470993374e-16
2.528214784e-16
2.587626134e-16
2.649282667e-16
2.713239585e-16
2.779551978e-16
2.848274744e-16
2.91946252e-16
2.993169602e-16
3.069449871e-16
3.148356711e-16
3.229942937e-16
3.314260713e-16
3.401361474e-16
3.491295852e-16
3.584113595e-16
3.679863494e-16
3.778593308e-16
3.880349691e-16
3.985178119e-16
4.093122826e-16
4.204226729e-16
4.318531374e-16
4.436076869e-16
4.556901827e-16
4.681043315e-16
4.808536804e-16
4.939416123e-16
5.073713418e-16
5.211459118e-16
5.352681906e-16
5.497408692e-16
5.645664597e-16
5.797472939e-16
5.952855232e-16
6.111831182e-16
6.274418701e-16
6.440633922e-16
6.61049122e-16
6.784003253e-16
6.961180995e-16
7.142033792e-16
7.326569419e-16
7.514794148e-16
7.706712828e-16
7.902328976e-16
8.101644868e-16
8.304661657e-16
8.51137949e-16
8.721797636e-16
8.935914636e-16
9.153728451e-16
9.375236631e-16
9.600436496e-16
9.829325323e-16
1.006190055e-15
1.029816001e-15
1.053810212e-15
1.078172618e-15
1.102903258e-15
1.128002312e-15
1.153470124e-15
1.179307239e-15
1.205514428e-15
1.232092726e-15
1.259043465e-15
1.286368307e-15
1.314069291e-15
1.342148862e-15
1.370609919e-15
1.399455856e-15
1.428690606e-15
1.45831869e-15
1.488345263e-15
1.518776163e-15
1.549617966e-15
1.58087804e-15
1.612564596e-15
1.644686752e-15
1.677254587e-15
1.710279207e-15
1.743772806e-15
1.777748734e-15
1.812221561e-15
1.847207152e-15
1.882722734e-15
1.918786975e-15
1.955420055e-15
1.992643752e-15
2.030481514e-15
2.06895855e-15
2.108101914e-15
2.147940597e-15
2.188505603e-15
2.22983008e-15
2.271949385e-15
2.314901171e-15
2.358725514e-15
2.403465005e-15
2.449164866e-15
2.495873055e-15
2.543640383e-15
2.592520627e-15
2.642570645e-15
2.693850496e-15
2.746423561e-15
2.800356668e-15
2.85572022e-15
2.912588313e-15
2.971038891e-15
3.031153878e-15
3.093019327e-15
3.156725563e-15
3.222367355e-15
3.290044071e-15
3.359859813e-15
3.431923596e-15
3.506349521e-15
3.583256961e-15
3.66277074e-15
3.745021328e-15
3.830145037e-15
3.918284227e-15
4.009587522e-15
4.104210032e-15
4.202313584e-15
4.304066966e-15
4.409646179e-15
4.519234701e-15
4.633023764e-15
4.751212644e-15
4.874008964e-15
5.001629015e-15
5.134298089e-15
5.272250835e-15
5.415731632e-15
5.56499498e-15
5.720305917e-15
5.881940461e-15
6.050186074e-15
6.225342163e-15
6.407720607e-15
6.597646322e-15
6.795457868e-15
7.001508101e-15
7.216164874e-15
7.439811802e-15
7.672849092e-15
7.915694454e-15
8.168784108e-15
8.432573902e-15
8.707540566e-15
8.99418313e-15
9.293024536e-15
9.604613505e-15
9.929526698e-15
1.026837125e-14
1.06217878e-14
1.099045405e-14
1.137508914e-14
1.177645887e-14
1.219538219e-14
1.263273908e-14
1.308948044e-14
1.356664024e-14
1.406535085e-14
1.458686215e-14
1.51325657e-14
1.570402508e-14
1.630301435e-14
1.693156677e-14
1.75920365e-14
1.8287177e-14
1.902024081e-14
1.979510626e-14
2.061643905e-14
2.148989791e-14
2.242239674e-14
2.342243885e-14
2.450054316e-14
2.56697878e-14
2.694650365e-14
2.83511592e-14
2.990948965e-14
3.165393784e-14
3.362549308e-14
3.587603797e-14
3.84713436e-14
4.149489213e-14
4.505275545e-14
4.927982165e-14
5.43477412e-14
6.047506797e-14
6.794020052e-14
7.709789656e-14
8.840034606e-14
1.024240604e-13
1.199041803e-13
1.417782481e-13
1.692420504e-13
2.038208553e-13
2.474602824e-13
3.02642205e-13
3.7253257e-13
4.611699044e-13
5.737056856e-13
7.167108074e-13
8.9856627e-13
1.129961172e-12
1.424527384e-12
1.799648275e-12
2.277489055e-12
2.886309179e-12
3.662133683e-12
4.650881065e-12
5.911071718e-12
7.517274225e-12
9.5644891e-12
1.217372285e-11
1.549907262e-11
1.973672666e-11
2.513639266e-11
3.201580057e-11
4.077909518e-11
5.19401448e-11
6.615205649e-11
8.424451691e-11
1.072709863e-10
1.365682792e-10
1.738316882e-10
2.212095754e-10
2.814222882e-10
3.579113982e-10
4.55026631e-10
5.782594999e-10
7.345346115e-10
9.325719039e-10
1.183335747e-09
1.500589886e-09
1.901580645e-09
2.407874589e-09
3.046380917e-09
3.850593032e-09
4.862087923e-09
6.132325765e-09
7.72479525e-09
9.717552039e-09
1.220619781e-08
1.530734506e-08
1.916260744e-08
2.394314614e-08
2.98547896e-08
3.714372611e-08
4.610274681e-08
5.707799117e-08
7.047611965e-08
8.677181026e-08
1.065154502e-07
1.303408733e-07
1.589729796e-07
1.932350682e-07
2.340557153e-07
2.8247504e-07
3.396502161e-07
4.068601134e-07
4.855090038e-07
5.771293467e-07
6.833838047e-07
8.060668228e-07
9.471064195e-07
1.108566976e-06
1.292654481e-06
1.501725952e-06
1.738305653e-06
2.005111308e-06
2.305092204e-06
2.641472762e-06
3.017517278e-06
3.437493424e-06
3.903236217e-06
4.42086261e-06
4.988679449e-06
5.598799583e-06
6.209632206e-06
6.797344807e-06
7.308385124e-06
7.666939742e-06
7.774234223e-06
7.535722857e-06
6.932978035e-06
6.069006828e-06
5.123403023e-06
4.256341457e-06
3.539724787e-06
2.968462832e-06
2.538905458e-06
2.204724148e-06
1.929020356e-06
1.67872431e-06
1.442439634e-06
1.209159878e-06
9.817795078e-07
7.706407188e-07
5.831294788e-07
4.247367972e-07
2.982085434e-07
2.026898428e-07
1.344410117e-07
8.769985817e-08
5.658862969e-08
3.641425766e-08
2.33763342e-08
1.509513276e-08
9.799272184e-09
6.400342322e-09
4.207925122e-09
2.7858485e-09
1.851829194e-09
1.232373875e-09
8.239023225e-10
5.533094903e-10
3.732030409e-10
2.523706512e-10
1.713259435e-10
1.16636314e-10
7.963062279e-11
5.449733799e-11
3.762071975e-11
2.604161905e-11
1.800440411e-11
1.248111151e-11
8.672104479e-12
6.037027536e-12
4.20919416e-12
2.938499366e-12
2.053982535e-12
1.436781848e-12
1.005808589e-12
7.045580351e-13
4.937981603e-13
3.462397364e-13
2.42872004e-13
1.704350953e-13
1.196518211e-13
8.40256872e-14
5.901948852e-14
4.146022055e-14
2.912638508e-14
2.046114988e-14
1.437259296e-14
1.009435208e-14
7.088265567e-15
4.976260318e-15
3.492646276e-15
2.450670437e-15
1.719048602e-15
1.205486821e-15
8.451042485e-16
5.922959331e-16
4.150115554e-16
2.907318992e-16
2.036389074e-16
1.426251594e-16
9.989383274e-17
6.997409537e-17
4.902878246e-17
3.436770981e-17
2.410564608e-17
1.692203002e-17
1.189223157e-17
8.369105455e-18
5.899885935e-18
4.167906002e-18
2.951746454e-18
2.096616871e-18
1.49431642e-18
1.069212835e-18
7.684274951e-19
5.549783731e-19
4.029878934e-19
2.943351662e-19
2.163181092e-19
1.600212792e-19
1.191766024e-19
8.936820057e-20
6.747741323e-20
5.129519264e-20
3.925138414e-20
3.022552183e-20
2.341444249e-20
1.823953582e-20
1.428165681e-20
1.123535662e-20
8.876617973e-21
7.040042572e-21
5.602665397e-21
4.472424345e-21
3.579908594e-21
2.872423021e-21
2.30969442e-21
1.860746329e-21
1.501609501e-21
1.21363306e-21
9.822298997e-22
7.959379904e-22
6.457129975e-22
5.243914814e-22
4.262807736e-22
3.468436208e-22
2.824542321e-22
2.302085108e-22
1.877756811e-22
1.532817459e-22
1.252175679e-22
1.023661051e-22
8.374462161e-23
6.855866121e-23
5.616529665e-23
4.604372106e-23
3.777166888e-23
3.100647873e-23
2.54698614e-23
2.093563165e-23
1.721981523e-23
1.417266273e-23
1.167219617e-23
9.618989511e-24
7.931943551e-24
6.54486292e-24
5.403680887e-24
4.464207664e-24
3.690302178e-24
3.052386629e-24
2.526238752e-24
2.092009201e-24
1.733421554e-24
1.437120592e-24
1.192140994e-24
9.894739389e-25
8.21713335e-25
6.827668575e-25
5.676197741e-25
4.721417894e-25
3.929289697e-25
3.271742964e-25
2.725615942e-25
2.27178558e-25
1.894453962e-25
1.580562475e-25
1.319310565e-25
1.101760149e-25
9.205102539e-26
7.694292275e-26
6.434342271e-26
5.383095097e-26
4.505566162e-26
3.77270776e-26
3.160388837e-26
2.648552326e-26
2.220518768e-26
1.862410465e-26
1.562675063e-26
1.311691164e-26
1.101441654e-26
9.252429951e-27
7.775207538e-27
6.536233752e-27
5.496676091e-27
4.624101361e-27
3.891409011e-27
3.275944369e-27
2.758761079e-27
2.324007321e-27
1.958414803e-27
1.650873093e-27
1.392074894e-27
1.174220277e-27
9.907699724e-28
8.362394864e-28
7.060272042e-28
5.962708122e-28
5.037273183e-28
4.256727489e-28
3.598182608e-28
3.042399517e-28
2.573201089e-28
2.176980116e-28
1.842287177e-28
1.559485246e-28
1.320460135e-28
1.11837764e-28
9.474797898e-29
8.029138354e-29
6.805886658e-29
5.770542117e-29
4.894001188e-29
4.151705826e-29
3.522927435e-29
2.990164617e-29
2.538636473e-29
2.155856161e-29
1.831271867e-29
1.555964461e-29
1.322392788e-29
1.124179029e-29
9.559277842e-30
8.130735156e-30
6.917518821e-30
5.886911833e-30
5.011207481e-30
4.266935983e-30
3.634211461e-30
3.096180368e-30
2.638555475e-30
2.249222048e-30
1.917904932e-30
1.635887052e-30
1.395771327e-30
1.191279249e-30
1.017080429e-30
8.686483292e-31
7.42138103e-31
6.342831514e-31
5.423074919e-31
4.638515092e-31
3.969090289e-31
3.397739724e-31
2.909951243e-31
2.493377693e-31
2.137511469e-31
1.833408349e-31
1.573453102e-31
1.351160501e-31
1.161006351e-31
9.982839724e-32
8.589822781e-32
7.396821658e-32
6.374684611e-32
5.498550547e-32
4.747212445e-32
4.102575926e-32
3.549198644e-32
3.07389835e-32
2.665419316e-32
2.314148359e-32
2.011873041e-32
1.751575739e-32
1.527258214e-32
1.333792143e-32
1.166791733e-32
1.022505132e-32
8.977218569e-33
7.896938328e-33
6.960680549e-33
6.148291312e-33
5.442502538e-33
4.82851351e-33
4.293633611e-33
3.826977259e-33
3.419203353e-33
3.062292684e-33
2.749357747e-33
2.474480191e-33
2.232571861e-33
2.01925599e-33
1.830765578e-33
1.663856474e-33
1.515732993e-33
1.383984265e-33
1.266529732e-33
1.161572491e-33
1.067559325e-33
9.831464564e-34
9.071702066e-34
8.386218361e-34
7.766259751e-34
7.2042212e-34
6.693487563e-34
6.228297318e-34
5.803625549e-34
5.415083442e-34
5.058831911e-34
4.73150735e-34
4.430157781e-34
4.152187902e-34
3.895311783e-34
3.657512126e-34
3.437005152e-34
3.232210319e-34
3.041724197e-34
2.864297902e-34
2.698817611e-34
2.544287696e-34
2.399816138e-34
2.264601892e-34
2.137923922e-34
2.019131697e-34
1.907636931e-34
1.802906389e-34
1.704455636e-34
1.611843576e-34
1.524667691e-34
1.442559875e-34
1.365182789e-34
1.29222666e-34
1.22340647e-34
1.15845949e-34
1.097143095e-34
1.039232843e-34
9.845207698e-35
9.328138813e-35
8.839328114e-35
8.377106259e-35
7.93991761e-35
7.526310671e-35
7.134929567e-35
6.764506369e-35
6.413854199e-35
6.081860991e-35
5.767483875e-35
5.469744058e-35
5.187722198e-35
4.920554174e-35
4.667427249e-35
4.427576538e-35
4.200281802e-35
3.984864475e-35
3.780684954e-35
3.587140087e-35
3.403660857e-35
3.229710256e-35
3.064781291e-35
2.908395164e-35
2.760099563e-35
2.619467068e-35
2.486093683e-35
2.359597461e-35
2.239617213e-35
2.12581132e-35
2.017856598e-35
1.915447256e-35
1.818293908e-35
1.726122652e-35
1.6386742e-35
1.555703072e-35
1.476976821e-35
1.402275322e-35
1.331390094e-35
1.264123662e-35
1.20028896e-35
1.13970876e-35
1.082215145e-35
1.027649005e-35
9.758595602e-36
9.2670392e-36
8.800466571e-36
8.357594081e-36
7.937204981e-36
7.53814584e-36
7.159323208e-36
6.799700417e-36
6.458294588e-36
6.134173779e-36
5.826454303e-36
5.534298213e-36
5.256910858e-36
4.993538655e-36
4.743466887e-36
4.506017691e-36
4.280548135e-36
4.066448392e-36
3.863140003e-36
3.67007425e-36
3.486730608e-36
3.312615277e-36
3.147259787e-36
2.990219687e-36
2.841073292e-36
2.699420521e-36
2.564881753e-36
2.43709678e-36
2.315723812e-36
2.200438514e-36
2.090933106e-36
1.986915516e-36
1.88810856e-36
1.794249177e-36
1.705087706e-36
1.620387203e-36
1.539922766e-36
1.463480938e-36
1.390859107e-36
1.321864948e-36
1.256315908e-36
1.194038695e-36
1.134868805e-36
1.078650071e-36
1.025234242e-36
9.744805736e-37
9.262554416e-37
8.80431988e-37
8.368897656e-37
7.955144162e-37
7.561973613e-37
7.188355023e-37
6.83330944e-37
6.49590732e-37
6.175265974e-37
5.870547229e-37
5.580955106e-37
5.305733732e-37
5.044165302e-37
4.7955681e-37
4.559294685e-37
4.3347302e-37
4.121290654e-37
3.91842142e-37
3.725595682e-37
3.542313094e-37
3.368098379e-37
3.202500125e-37
3.045089535e-37
2.895459282e-37
2.75322246e-37
2.618011518e-37
2.489477312e-37
2.367288169e-37
2.251128999e-37
2.140700437e-37
2.035718103e-37
1.935911827e-37
1.841024901e-37
1.75081345e-37
1.665045755e-37
1.583501663e-37
1.505971987e-37
1.432257975e-37
1.362170776e-37
1.295530945e-37
1.232167959e-37
1.171919789e-37
1.114632464e-37
1.060159678e-37
1.008362392e-37
9.591084754e-38
9.122723611e-38
8.677347193e-38
8.253821387e-38
7.851068486e-38
7.468064187e-38
7.103835011e-38
6.757455697e-38
6.42804685e-38
6.114772617e-38
5.816838613e-38
5.533489787e-38
5.264008382e-38
5.007712227e-38
4.763952788e-38
4.532113707e-38
4.311609079e-38
4.101881905e-38
3.902402751e-38
3.712668308e-38
3.532200096e-38
3.360543282e-38
3.197265467e-38
3.04195555e-38
2.894222723e-38
2.753695461e-38
2.620020497e-38
2.492861997e-38
2.371900668e-38
2.256832923e-38
2.147370116e-38
2.043237792e-38
1.944175009e-38
1.84993366e-38
1.760277798e-38
1.674983109e-38
1.593836267e-38
1.516634426e-38
1.443184687e-38
1.37330362e-38
1.306816817e-38
1.243558364e-38
1.183370496e-38
1.126103199e-38
1.071613779e-38
1.019766519e-38
9.704323621e-39
9.234885531e-39
8.788183266e-39
8.363106062e-39
7.95859755e-39
7.573652788e-39
7.207315914e-39
6.858677234e-39
6.526871684e-39
6.21107603e-39
5.910507122e-39
5.624419757e-39
5.35210482e-39
5.092887651e-39
4.846126039e-39
4.611208951e-39
4.387554643e-39
4.174609493e-39
3.971846543e-39
3.778764087e-39
3.594884477e-39
3.419753109e-39
3.25293714e-39
3.094024507e-39
2.942623015e-39
2.79835953e-39
2.66087937e-39
2.529845557e-39
2.404938631e-39
2.285856601e-39
2.172315284e-39
2.064049482e-39
1.960814749e-39
1.862391004e-39
1.768588038e-39
1.679254391e-39
1.59429141e-39
1.513675346e-39
1.43749145e-39
1.365987984e-39
8.261887252e-40
4.179032053e-40
2.111161214e-40
1.064849938e-40
5.358707966e-41
2.689742752e-41
1.346416675e-41
6.720866428e-42
3.345162217e-42
1.660079273e-42
8.213625321e-43
4.051513891e-43
1.992292141e-43
9.766253236e-44
4.77231499e-44
2.324614874e-44
1.128680628e-44
5.462697722e-45
2.635448959e-45
1.26740398e-45
6.076220604e-46
2.90377507e-46
1.383321167e-46
6.571259596e-47
3.11205305e-47
1.469869524e-47
6.922652824e-48
3.252287732e-48
1.524235504e-48
7.128577121e-49
3.326545813e-49
1.551398008e-49
7.225707084e-50
3.363778234e-50
1.57172943e-50
7.364817436e-51
3.467727641e-51
1.648061812e-51
7.94801962e-52
3.904923014e-52
1.990265886e-52
1.048201436e-52
5.919952144e-53
3.517271295e-53
2.126967701e-53
1.294310201e-53
8.128805509e-54
5.752720304e-54
3.75104372e-54
2.652860615e-54
1.820282514e-54
1.300866896e-54
8.69047055e-55
6.020408997e-55
4.38989123e-55
3.370852612e-55
2.365754157e-55
1.60591465e-55
1.137009187e-55
7.740294938e-56
5.563687091e-56
3.777334557e-56
2.720284258e-56
1.903586675e-56
1.333025927e-56
9.250624668e-57
6.5114996e-57
4.533840962e-57
3.151058709e-57
2.172149102e-57
1.48436605e-57
1.039413968e-57
7.787504636e-58
5.036344969e-58
4.18771738e-58
2.267216025e-58
1.965635638e-58
1.378012162e-58
1.26223398e-58
3.19942114e-59
6.138011977e-59
4.444660644e-60
5.040563865e-60
8.26117719e-59
4.565447524e-59
5.920972118e-60
0
0
0
0
2.054838644e-59
2.507570359e-61
2.705675338e-60
3.210567551e-63
2.64536871e-60
3.64062854e-61
0
3.964183293e-61
0
2.02004689e-60
2.354679637e-62
5.831052077e-61
1.969257481e-60
1.289810519e-61
2.50409453e-61
2.790161586e-61
5.227687379e-61
4.694189977e-61
3.131343655e-60
3.41688813e-62
1.158965956e-60
1.05256924e-60
2.443750382e-62
1.097699654e-60
5.632328068e-63
2.440653606e-62
2.572860514e-61
2.485193595e-62
7.60709831e-61
3.582472786e-61
2.666243165e-61
2.172337018e-61
1.226788988e-61
0
0
6.374926627e-63
0
3.348732196e-61
1.618613439e-62
0
1.345380267e-62
1.214739427e-61
8.878608466e-61
2.644581588e-62
1.462758282e-60
1.006668177e-60
1.404636763e-61
5.936103059e-61
3.365981434e-60
3.627110084e-61
5.542224017e-61
5.000707677e-62
9.313406279e-61
6.090301492e-61
1.514449372e-60
6.619638274e-61
0
4.36472842e-60
1.488896101e-60
1.649365082e-60
1.604631607e-60
0
0
1.34607584e-61
1.660121755e-61
1.194780107e-60
0
2.265960047e-60
3.390003445e-60
2.177285675e-60
3.498538021e-60
6.953727993e-61
3.485780977e-60
4.478383112e-60
1.475714876e-60
8.074176823e-61
2.10304566e-62
5.874584178e-61
0
3.467946138e-60
3.160099857e-61
1.264787214e-60
0
3.887061514e-62
0
6.69166971e-61
2.656570105e-60
1.825149799e-60
2.759429631e-60
2.765806676e-60
2.974559421e-60
2.828200412e-60
3.152885912e-60
1.878059938e-60
4.900316835e-60
7.613967994e-62
1.081194352e-60
4.646089331e-64
1.647793847e-60
0
2.53129268e-60
4.467371768e-60
2.126518821e-61
3.092809734e-60
2.305518343e-60
1.297170602e-60
9.781134124e-61
1.326646396e-60
2.128861459e-60
4.604503843e-61
0
4.823505048e-61
1.022710213e-60
1.756956274e-61
2.51655956e-61
4.846711226e-61
0
1.431940163e-60
5.382022709e-61
0
8.236257064e-61
1.546569221e-60
0
0
0
2.233823187e-60
7.614646521e-63
8.258922669e-61
2.744148927e-64
2.062050271e-63
4.901094842e-61
3.731920695e-61
3.753093279e-63
2.185093367e-61
8.988762712e-62
7.030395895e-62
2.628914035e-61
2.717526655e-61
3.993944565e-61
1.000019669e-61
0
1.741262896e-63
1.286367782e-62
6.41822041e-61
0
6.158524356e-61
5.953789066e-61
7.180806286e-62
0
0
4.147568469e-61
3.72455628e-63
2.682308081e-62
0
0
0
2.428234346e-61
6.823726275e-61
4.089215671e-61
0
)
;

boundaryField
{
    inlet
    {
        type            fixedValue;
        value           uniform 0;
    }
    outlet
    {
        type            zeroGradient;
    }
    wall
    {
        type            empty;
    }
}


// ************************************************************************* //
