/*--------------------------------*- C++ -*----------------------------------*\
  =========                 |
  \\      /  F ield         | OpenFOAM: The Open Source CFD Toolbox
   \\    /   O peration     | Website:  https://openfoam.org
    \\  /    A nd           | Version:  7
     \\/     M anipulation  |
\*---------------------------------------------------------------------------*/
FoamFile
{
    version     2.0;
    format      ascii;
    class       volScalarField;
    location    "0.000558243009";
    object      C5H10-1_0;
}
// * * * * * * * * * * * * * * * * * * * * * * * * * * * * * * * * * * * * * //

dimensions      [0 0 0 0 0 0 0];

internalField   nonuniform List<scalar> 
1500
(
9.019721219e-16
3.509030312e-15
7.214345214e-15
1.076668612e-14
1.33667074e-14
1.492144358e-14
1.57112764e-14
1.60605365e-14
1.619727714e-14
1.624531629e-14
1.626063009e-14
1.626510166e-14
1.626630729e-14
1.626660951e-14
1.626668035e-14
1.626669597e-14
1.626669921e-14
1.626669985e-14
1.626669997e-14
1.62667e-14
1.62667e-14
1.62667e-14
1.62667e-14
1.62667e-14
1.62667e-14
1.62667e-14
1.62667e-14
1.62667e-14
1.62667e-14
1.62667e-14
1.62667e-14
1.62667e-14
1.62667e-14
1.62667e-14
1.62667e-14
1.62667e-14
1.62667e-14
1.62667e-14
1.62667e-14
1.62667e-14
1.62667e-14
1.62667e-14
1.62667e-14
1.62667e-14
1.62667e-14
1.62667e-14
1.62667e-14
1.62667e-14
1.62667e-14
1.62667e-14
1.62667e-14
1.62667e-14
1.62667e-14
1.62667e-14
1.62667e-14
1.62667e-14
1.62667e-14
1.62667e-14
1.62667e-14
1.62667e-14
1.62667e-14
1.62667e-14
1.62667e-14
1.62667e-14
1.62667e-14
1.62667e-14
1.62667e-14
1.62667e-14
1.62667e-14
1.62667e-14
1.62667e-14
1.62667e-14
1.62667e-14
1.62667e-14
1.62667e-14
1.62667e-14
1.62667e-14
1.62667e-14
1.62667e-14
1.62667e-14
1.62667e-14
1.62667e-14
1.62667e-14
1.62667e-14
1.62667e-14
1.62667e-14
1.62667e-14
1.62667e-14
1.62667e-14
1.62667e-14
1.62667e-14
1.62667e-14
1.62667e-14
1.62667e-14
1.62667e-14
1.62667e-14
1.62667e-14
1.62667e-14
1.62667e-14
1.62667e-14
1.62667e-14
1.62667e-14
1.62667e-14
1.62667e-14
1.62667e-14
1.62667e-14
1.62667e-14
1.62667e-14
1.62667e-14
1.62667e-14
1.62667e-14
1.62667e-14
1.62667e-14
1.62667e-14
1.62667e-14
1.62667e-14
1.62667e-14
1.62667e-14
1.62667e-14
1.62667e-14
1.62667e-14
1.62667e-14
1.62667e-14
1.62667e-14
1.62667e-14
1.62667e-14
1.62667e-14
1.62667e-14
1.62667e-14
1.62667e-14
1.62667e-14
1.62667e-14
1.62667e-14
1.62667e-14
1.62667e-14
1.62667e-14
1.62667e-14
1.62667e-14
1.62667e-14
1.62667e-14
1.62667e-14
1.62667e-14
1.62667e-14
1.62667e-14
1.62667e-14
1.62667e-14
1.62667e-14
1.62667e-14
1.62667e-14
1.62667e-14
1.62667e-14
1.62667e-14
1.62667e-14
1.62667e-14
1.62667e-14
1.62667e-14
1.62667e-14
1.62667e-14
1.62667e-14
1.62667e-14
1.62667e-14
1.62667e-14
1.62667e-14
1.62667e-14
1.62667e-14
1.62667e-14
1.62667e-14
1.62667e-14
1.62667e-14
1.62667e-14
1.62667e-14
1.62667e-14
1.62667e-14
1.62667e-14
1.62667e-14
1.62667e-14
1.62667e-14
1.62667e-14
1.62667e-14
1.62667e-14
1.62667e-14
1.62667e-14
1.62667e-14
1.62667e-14
1.62667e-14
1.62667e-14
1.62667e-14
1.62667e-14
1.62667e-14
1.62667e-14
1.62667e-14
1.62667e-14
1.62667e-14
1.62667e-14
1.62667e-14
1.62667e-14
1.62667e-14
1.62667e-14
1.62667e-14
1.62667e-14
1.62667e-14
1.62667e-14
1.62667e-14
1.62667e-14
1.62667e-14
1.62667e-14
1.62667e-14
1.62667e-14
1.62667e-14
1.62667e-14
1.62667e-14
1.62667e-14
1.62667e-14
1.62667e-14
1.62667e-14
1.62667e-14
1.62667e-14
1.62667e-14
1.62667e-14
1.62667e-14
1.62667e-14
1.62667e-14
1.62667e-14
1.62667e-14
1.62667e-14
1.62667e-14
1.62667e-14
1.62667e-14
1.62667e-14
1.62667e-14
1.62667e-14
1.62667e-14
1.62667e-14
1.62667e-14
1.62667e-14
1.62667e-14
1.62667e-14
1.62667e-14
1.626670001e-14
1.626670003e-14
1.626670012e-14
1.626670049e-14
1.626670202e-14
1.626670791e-14
1.626672871e-14
1.626679555e-14
1.626698837e-14
1.626747713e-14
1.626851851e-14
1.6270162e-14
1.627057428e-14
1.627072833e-14
1.627088884e-14
1.627105606e-14
1.62712302e-14
1.627141152e-14
1.62716003e-14
1.627179687e-14
1.627200156e-14
1.627221473e-14
1.627243673e-14
1.627266797e-14
1.627290882e-14
1.627315972e-14
1.627342109e-14
1.62736934e-14
1.627397712e-14
1.627427275e-14
1.627458081e-14
1.627490186e-14
1.627523645e-14
1.627558521e-14
1.627594875e-14
1.627632773e-14
1.627672285e-14
1.627713483e-14
1.627756442e-14
1.627801243e-14
1.627847968e-14
1.627896705e-14
1.627947547e-14
1.62800059e-14
1.628055934e-14
1.628113687e-14
1.62817396e-14
1.62823687e-14
1.628302541e-14
1.628371104e-14
1.628442694e-14
1.628517456e-14
1.62859554e-14
1.628677107e-14
1.628762324e-14
1.628851368e-14
1.628944427e-14
1.629041696e-14
1.629143384e-14
1.62924971e-14
1.629360905e-14
1.629477215e-14
1.629598897e-14
1.629726226e-14
1.62985949e-14
1.629998995e-14
1.630145066e-14
1.630298045e-14
1.630458296e-14
1.630626205e-14
1.63080218e-14
1.630986655e-14
1.631180089e-14
1.631382972e-14
1.631595821e-14
1.631819188e-14
1.632053659e-14
1.632299857e-14
1.632558444e-14
1.632830124e-14
1.633115648e-14
1.633415814e-14
1.633731471e-14
1.634063526e-14
1.634412943e-14
1.63478075e-14
1.635168041e-14
1.635575986e-14
1.636005828e-14
1.636458895e-14
1.636936603e-14
1.637440461e-14
1.63797208e-14
1.638533177e-14
1.639125584e-14
1.639751256e-14
1.640412277e-14
1.641110871e-14
1.641849408e-14
1.642630418e-14
1.643456598e-14
1.644330822e-14
1.645256157e-14
1.64623587e-14
1.647273442e-14
1.648372583e-14
1.649537245e-14
1.650771636e-14
1.652080236e-14
1.653467814e-14
1.654939444e-14
1.656500521e-14
1.658156785e-14
1.659914335e-14
1.661779651e-14
1.663759616e-14
1.665861537e-14
1.668093167e-14
1.670462731e-14
1.672978949e-14
1.675651061e-14
1.678488855e-14
1.681502691e-14
1.684703534e-14
1.688102976e-14
1.691713274e-14
1.695547372e-14
1.699618938e-14
1.703942392e-14
1.708532942e-14
1.713406615e-14
1.718580291e-14
1.724071737e-14
1.729899643e-14
1.736083656e-14
1.742644416e-14
1.749603589e-14
1.756983908e-14
1.764809202e-14
1.77310444e-14
1.781895758e-14
1.7912105e-14
1.801077251e-14
1.81152587e-14
1.822587525e-14
1.834294728e-14
1.84668136e-14
1.859782711e-14
1.8736355e-14
1.88827791e-14
1.903749611e-14
1.920091785e-14
1.93734715e-14
1.955559978e-14
1.974776116e-14
1.995042998e-14
2.016409663e-14
2.038926762e-14
2.062646565e-14
2.087622966e-14
2.113911483e-14
2.141569258e-14
2.170655045e-14
2.201229205e-14
2.233353689e-14
2.267092017e-14
2.302509262e-14
2.339672017e-14
2.378648364e-14
2.41950784e-14
2.462321394e-14
2.507161344e-14
2.554101321e-14
2.603216219e-14
2.654582132e-14
2.70827629e-14
2.764376987e-14
2.822963509e-14
2.884116049e-14
2.947915629e-14
3.014444007e-14
3.083783582e-14
3.1560173e-14
3.231228549e-14
3.309501053e-14
3.39091876e-14
3.475565733e-14
3.563526029e-14
3.654883576e-14
3.749722059e-14
3.848124783e-14
3.950174554e-14
4.055953544e-14
4.165543163e-14
4.279023924e-14
4.396475314e-14
4.517975656e-14
4.643601981e-14
4.77342989e-14
4.907533431e-14
5.04598496e-14
5.188855023e-14
5.336212224e-14
5.488123107e-14
5.644652038e-14
5.805861089e-14
5.97180993e-14
6.142555728e-14
6.318153043e-14
6.498653742e-14
6.68410691e-14
6.874558773e-14
7.070052628e-14
7.270628783e-14
7.476324503e-14
7.687173968e-14
7.903208236e-14
8.124455223e-14
8.350939693e-14
8.58268325e-14
8.819704358e-14
9.062018355e-14
9.309637496e-14
9.562570998e-14
9.820825106e-14
1.008440317e-13
1.035330572e-13
1.06275306e-13
1.090707307e-13
1.119192594e-13
1.148207974e-13
1.177752287e-13
1.20782418e-13
1.238422126e-13
1.269544448e-13
1.301189338e-13
1.333354891e-13
1.366039124e-13
1.39924001e-13
1.43295551e-13
1.467183602e-13
1.501922321e-13
1.537169795e-13
1.572924282e-13
1.609184215e-13
1.645948246e-13
1.683215288e-13
1.720984569e-13
1.759255678e-13
1.798028623e-13
1.83730388e-13
1.877082459e-13
1.917365958e-13
1.95815663e-13
1.999457448e-13
2.041272173e-13
2.083605426e-13
2.126462764e-13
2.169850752e-13
2.213777048e-13
2.258250487e-13
2.30328116e-13
2.34888051e-13
2.395061423e-13
2.44183832e-13
2.489227262e-13
2.537246046e-13
2.585914314e-13
2.635253662e-13
2.68528775e-13
2.736042422e-13
2.787545822e-13
2.839828518e-13
2.892923633e-13
2.946866981e-13
3.001697178e-13
3.05745584e-13
3.114187674e-13
3.171940619e-13
3.230766021e-13
3.290718783e-13
3.351857528e-13
3.414244768e-13
3.477947064e-13
3.543035204e-13
3.609584371e-13
3.677674324e-13
3.747389575e-13
3.818819573e-13
3.8920589e-13
3.967207436e-13
4.044370591e-13
4.123659495e-13
4.205191219e-13
4.289088975e-13
4.375482368e-13
4.464507619e-13
4.556307753e-13
4.651032859e-13
4.748840333e-13
4.849895136e-13
4.954370046e-13
5.062445928e-13
5.174312006e-13
5.290166144e-13
5.410215143e-13
5.534675041e-13
5.663771427e-13
5.797739771e-13
5.936825758e-13
6.081285648e-13
6.23138664e-13
6.387407258e-13
6.549637755e-13
6.718380536e-13
6.893950597e-13
7.076675997e-13
7.26689834e-13
7.464973295e-13
7.671271137e-13
7.886177324e-13
8.110093095e-13
8.343436119e-13
8.586641164e-13
8.84016082e-13
9.104466258e-13
9.380048031e-13
9.667416936e-13
9.967104917e-13
1.027966603e-12
1.060567749e-12
1.094574073e-12
1.130048259e-12
1.167055658e-12
1.20566442e-12
1.245945639e-12
1.287973506e-12
1.331825481e-12
1.377582472e-12
1.425329037e-12
1.475153604e-12
1.527148716e-12
1.581411305e-12
1.638043004e-12
1.697150501e-12
1.758845949e-12
1.823247451e-12
1.890479628e-12
1.960674303e-12
2.033971331e-12
2.110519612e-12
2.190478349e-12
2.274018614e-12
2.361325317e-12
2.452599693e-12
2.548062478e-12
2.647957951e-12
2.752559138e-12
2.8621745e-12
2.977156573e-12
3.09791314e-12
3.224921711e-12
3.358748314e-12
3.500071903e-12
3.649716102e-12
3.808690502e-12
3.97824443e-12
4.15993698e-12
4.355728254e-12
4.568098265e-12
4.800201928e-12
5.056071109e-12
5.340878041e-12
5.661278795e-12
6.025861116e-12
6.445728387e-12
6.93526106e-12
7.513109518e-12
8.203488649e-12
9.037865764e-12
1.005716129e-11
1.131461787e-11
1.287954063e-11
1.484217284e-11
1.732005118e-11
2.046628883e-11
2.448037044e-11
2.962221898e-11
3.623052453e-11
4.474662324e-11
5.574560316e-11
6.997681828e-11
8.841664823e-11
1.12337193e-10
1.43395699e-10
1.837509471e-10
2.362146999e-10
3.044487135e-10
3.932209549e-10
5.087387082e-10
6.590814932e-10
8.547634859e-10
1.109463862e-09
1.44097474e-09
1.872430905e-09
2.433904099e-09
3.164468591e-09
4.11487535e-09
5.35101123e-09
6.958369494e-09
9.047821353e-09
1.176305852e-08
1.529017826e-08
1.987000988e-08
2.581394137e-08
3.352420386e-08
4.351981753e-08
5.646970593e-08
7.323485468e-08
9.49218382e-08
1.229505729e-07
1.591397889e-07
2.05814452e-07
2.659402139e-07
3.432909268e-07
4.426563025e-07
5.700979156e-07
7.332628898e-07
9.417657089e-07
1.207649568e-06
1.545939417e-06
1.975299197e-06
2.518805598e-06
3.204849779e-06
4.068176787e-06
5.151069728e-06
6.504682115e-06
8.190517252e-06
1.028204827e-05
1.28664668e-05
1.60465427e-05
1.994257235e-05
2.469438926e-05
3.046340837e-05
3.743467514e-05
4.581889156e-05
5.585439432e-05
6.780906381e-05
8.198214782e-05
9.870598908e-05
0.0001183476514
0.00014131046
0.0001680354544
0.0001990028236
0.0002347333756
0.0002757901818
0.0003227806512
0.0003763594893
0.0004372332587
0.0005061161301
0.0005839593263
0.0006713521076
0.0007701839426
0.0008816615709
0.001007451225
0.001144070492
0.001295401135
0.001462333547
0.001644948103
0.001841485359
0.00204704694
0.002253463587
0.002451940502
0.002635376319
0.002798178481
0.002934558439
0.003041120594
0.003104780793
0.003120064169
0.003078533099
0.00297117098
0.002797618479
0.002557969513
0.002261178885
0.001923925137
0.001571509524
0.001229517653
0.0009209222097
0.0006614811492
0.0004575406469
0.0003067399038
0.0002004721017
0.0001291895986
8.22777377e-05
5.242360824e-05
3.345904395e-05
2.144722758e-05
1.383098693e-05
8.983857833e-06
5.860024404e-06
3.826662693e-06
2.511902516e-06
1.657145258e-06
1.098256508e-06
7.308840481e-07
4.881193265e-07
3.267698652e-07
2.190564735e-07
1.473030838e-07
1.001162163e-07
6.831341084e-08
4.658779512e-08
3.189555949e-08
2.191243797e-08
1.509966813e-08
1.043281567e-08
7.225476003e-09
5.016194118e-09
3.48900686e-09
2.431575629e-09
1.697886954e-09
1.187831991e-09
8.325856561e-10
5.84715114e-10
4.114585498e-10
2.901416035e-10
2.050418811e-10
1.452381989e-10
1.031316719e-10
7.342653273e-11
5.242631773e-11
3.754691822e-11
2.697908308e-11
1.945411888e-11
1.408098071e-11
1.023283483e-11
7.467958603e-12
5.474509153e-12
4.031906886e-12
2.983800198e-12
2.219113026e-12
1.658740644e-12
1.2461973e-12
9.410321349e-13
7.141867133e-13
5.447160903e-13
4.174687129e-13
3.214415293e-13
2.486112877e-13
1.931022133e-13
1.505917213e-13
1.178849009e-13
9.260891031e-14
7.299276886e-14
5.770811796e-14
4.575363274e-14
3.637077912e-14
2.898215393e-14
2.314615274e-14
1.852348627e-14
1.485233144e-14
1.192980031e-14
9.598052547e-15
7.73383686e-15
6.240576182e-15
5.042349312e-15
4.079293214e-15
3.304074787e-15
2.679171619e-15
2.174767608e-15
1.767118077e-15
1.437274992e-15
1.17008954e-15
9.534292448e-16
7.775616414e-16
6.346677419e-16
5.184569854e-16
4.238617859e-16
3.467946997e-16
2.839549861e-16
2.326742297e-16
1.907929246e-16
1.565616524e-16
1.285618359e-16
1.056421022e-16
8.686711327e-17
7.14763718e-17
5.885101822e-17
4.848703983e-17
3.997363072e-17
3.297569488e-17
2.721968545e-17
2.248213356e-17
1.858034749e-17
1.536486507e-17
1.271332369e-17
1.052547757e-17
8.719144328e-18
7.226905083e-18
5.993415794e-18
4.973215134e-18
4.128935818e-18
3.429844111e-18
2.850646452e-18
2.370513678e-18
1.97228261e-18
1.641802338e-18
1.367398625e-18
1.13943479e-18
9.49951478e-19
7.923709382e-19
6.612541235e-19
5.521010412e-19
4.611865601e-19
3.854252928e-19
3.2226034e-19
2.695716275e-19
2.256003429e-19
1.888866073e-19
1.582180355e-19
1.325872582e-19
1.111568253e-19
9.323019157e-20
7.822771857e-20
6.566681321e-20
5.514548248e-20
4.632870888e-20
3.893715699e-20
3.273780751e-20
2.753618571e-20
2.316990966e-20
1.950333138e-20
1.642308346e-20
1.383437645e-20
1.165791886e-20
9.827353803e-21
8.28712464e-21
6.990696964e-21
5.899076695e-21
4.979574418e-21
4.204774567e-21
3.551675077e-21
3.000969004e-21
2.536444405e-21
2.144482783e-21
1.813639729e-21
1.534294126e-21
1.298354587e-21
1.099013676e-21
9.305420502e-22
7.881159638e-22
6.676726685e-22
5.657891484e-22
4.795803817e-22
4.066139515e-22
3.448383487e-22
2.925227495e-22
2.482064098e-22
2.10656126e-22
1.788304617e-22
1.518496542e-22
1.289702884e-22
1.095639771e-22
9.309940502e-23
7.912720312e-23
6.726720067e-23
5.719767891e-23
4.864630845e-23
4.138250426e-23
3.521097437e-23
2.996627422e-23
2.550820844e-23
2.171794696e-23
1.849474357e-23
1.575316253e-23
1.34207341e-23
1.143597181e-23
9.746695428e-24
8.308611962e-24
7.08411471e-24
6.041266574e-24
5.152939133e-24
4.396083437e-24
3.751112192e-24
3.201376205e-24
2.732720583e-24
2.333108457e-24
1.992301873e-24
1.701591101e-24
1.453564964e-24
1.241915924e-24
1.061274627e-24
9.070694214e-25
7.754070622e-25
6.629713683e-25
5.669371275e-25
4.848969294e-25
4.147989763e-25
3.548942121e-25
3.036913633e-25
2.599187014e-25
2.224915142e-25
1.904844277e-25
1.631078515e-25
1.396879284e-25
1.196494642e-25
1.025013908e-25
8.782438574e-26
7.526032471e-26
6.450329463e-26
5.529193496e-26
4.740290941e-26
4.064534028e-26
3.485606249e-26
2.989557595e-26
2.56445927e-26
2.200109102e-26
1.887780145e-26
1.620006115e-26
1.390398221e-26
1.193488767e-26
1.024597597e-26
8.797180153e-27
7.554193313e-27
6.487635918e-27
5.572344184e-27
4.786761832e-27
4.112420104e-27
3.533493153e-27
3.036417828e-27
2.609568458e-27
2.242978643e-27
1.92810321e-27
1.65761451e-27
1.425228067e-27
1.225553331e-27
1.05396589e-27
9.064980539e-28
7.797451405e-28
6.707852031e-28
5.771102633e-28
4.965673881e-28
4.273081953e-28
3.677455758e-28
3.165165955e-28
2.7245069e-28
2.345423932e-28
2.019279501e-28
1.738652577e-28
1.497166587e-28
1.289341792e-28
1.110468629e-28
9.564990123e-29
8.239530512e-29
7.098389715e-29
6.115843763e-29
5.269772252e-29
4.54115156e-29
3.913619616e-29
3.373102099e-29
2.907491338e-29
2.506370471e-29
2.160776436e-29
1.862996325e-29
1.606392367e-29
1.385251513e-29
1.194656142e-29
1.030372916e-29
8.887572192e-30
7.666709943e-30
6.614120902e-30
5.706534969e-30
4.923910833e-30
4.248986415e-30
3.666892135e-30
3.164818181e-30
2.731728214e-30
2.358113009e-30
2.035778436e-30
1.75766298e-30
1.517680666e-30
1.310585849e-30
1.131856795e-30
9.775954629e-31
8.444411896e-31
7.294963727e-31
6.302624598e-31
5.445848162e-31
4.706052351e-31
4.067210266e-31
3.515497715e-31
3.038989525e-31
2.627397858e-31
2.271846703e-31
1.964677524e-31
1.699281753e-31
1.469956392e-31
1.271779543e-31
1.1005031e-31
9.524602218e-32
8.244855582e-32
7.138464524e-32
6.181836129e-32
5.354599438e-32
4.639164096e-32
4.020339635e-32
3.485007045e-32
3.021835421e-32
2.62103749e-32
2.27415866e-32
1.973894978e-32
1.713936036e-32
1.488829385e-32
1.293863503e-32
1.124966779e-32
9.786203102e-33
8.517826119e-33
7.418246208e-33
6.464735695e-33
5.637645231e-33
4.919985277e-33
4.29706466e-33
3.756178392e-33
3.286338036e-33
2.878038778e-33
2.523058213e-33
2.21428251e-33
1.945556216e-33
1.711552479e-33
1.507660906e-33
1.32989065e-33
1.174786656e-33
1.039357269e-33
9.210116642e-34
8.175057556e-34
7.268954385e-34
6.474961614e-34
5.778479722e-34
5.166852935e-34
4.629107853e-34
4.155727407e-34
3.738455356e-34
3.370127177e-34
3.044523775e-34
2.756244923e-34
2.500599763e-34
2.273512059e-34
2.071438193e-34
1.891296209e-34
1.730404377e-34
1.586428021e-34
1.457333487e-34
1.341348276e-34
1.23692652e-34
1.14271909e-34
1.05754769e-34
9.803824157e-35
9.103223146e-35
8.465785288e-35
7.884596875e-35
7.353592431e-35
6.867444829e-35
6.421470031e-35
6.011544443e-35
5.634033144e-35
5.285727616e-35
4.963791664e-35
4.665714429e-35
4.389269563e-35
4.132479754e-35
3.893585874e-35
3.671020093e-35
3.463382544e-35
3.269420956e-35
3.088012909e-35
2.918150406e-35
2.758926351e-35
2.609522795e-35
2.469200629e-35
2.337290616e-35
2.213185502e-35
2.096333129e-35
1.986230404e-35
1.882417986e-35
1.784475635e-35
1.692018122e-35
1.604691616e-35
1.522170506e-35
1.444154605e-35
1.370366663e-35
1.300550177e-35
1.234467436e-35
1.171897801e-35
1.112636171e-35
1.056491603e-35
1.003286088e-35
9.528534723e-36
9.050384624e-36
8.59695756e-36
8.166892393e-36
7.758912865e-36
7.371821026e-36
7.004491541e-36
6.655866301e-36
6.32494963e-36
6.010803964e-36
5.712545794e-36
5.429342078e-36
5.160406865e-36
4.904998236e-36
4.662415407e-36
4.431996258e-36
4.213114875e-36
4.005179276e-36
3.807629444e-36
3.619935362e-36
3.441595287e-36
3.272134056e-36
3.111101603e-36
2.958071496e-36
2.812639612e-36
2.67442286e-36
2.543058045e-36
2.418200763e-36
2.299524377e-36
2.186719044e-36
2.079490796e-36
1.977560707e-36
1.880664082e-36
1.788549696e-36
1.700979109e-36
1.617725966e-36
1.53857537e-36
1.463323282e-36
1.391775956e-36
1.323749407e-36
1.259068918e-36
1.197568554e-36
1.139090694e-36
1.083485634e-36
1.030611145e-36
9.803321374e-37
9.325202688e-37
8.870535982e-37
8.43816278e-37
8.026982321e-37
7.635948646e-37
7.264067922e-37
6.910395744e-37
6.574034593e-37
6.254131583e-37
5.949876207e-37
5.660498079e-37
5.38526507e-37
5.12348134e-37
4.874485493e-37
4.637648873e-37
4.412373909e-37
4.198092611e-37
3.994265074e-37
3.800377995e-37
3.615943503e-37
3.440497738e-37
3.273599739e-37
3.114830271e-37
2.96379076e-37
2.82010232e-37
2.68340461e-37
2.55335505e-37
2.429627954e-37
2.311913598e-37
2.199917459e-37
2.093359513e-37
1.991973466e-37
1.895506063e-37
1.803716431e-37
1.716375533e-37
1.633265518e-37
1.55417921e-37
1.478919477e-37
1.407298884e-37
1.339139089e-37
1.27427046e-37
1.21253161e-37
1.153768989e-37
1.097836528e-37
1.044595206e-37
9.939127681e-38
9.456633167e-38
8.997270554e-38
8.559899699e-38
8.143435236e-38
7.74684395e-38
7.369142525e-38
7.009394782e-38
6.666709512e-38
6.340238452e-38
6.029174482e-38
5.732750219e-38
5.450236353e-38
5.180941125e-38
4.924210084e-38
4.679426711e-38
4.446014799e-38
4.22344225e-38
4.011228916e-38
3.808958943e-38
3.616301053e-38
3.43304144e-38
3.259136564e-38
3.09479675e-38
2.940621567e-38
1.778419459e-38
8.995279182e-39
4.541621266e-39
2.28935525e-39
1.151390982e-39
5.775767187e-40
2.889393249e-40
1.441346728e-40
7.169049244e-41
3.555152511e-41
1.757652878e-41
8.663000582e-42
4.256398849e-42
2.084693293e-42
1.017786021e-42
4.953147082e-43
2.402690967e-43
1.161779135e-43
5.599592515e-44
2.6902993e-44
1.288542041e-44
6.151950676e-45
2.927962802e-45
1.38955567e-45
6.574629743e-46
3.102376332e-46
1.459788849e-46
6.851789004e-47
3.208214146e-47
1.498986965e-47
6.988320917e-48
3.255420012e-48
1.514377556e-48
7.040132319e-49
3.282955886e-49
1.534473385e-49
7.200822945e-50
3.40763965e-50
1.633759506e-50
7.962347178e-51
4.027318294e-51
2.102802721e-51
1.169066437e-51
6.940366921e-52
4.285372878e-52
2.321998312e-52
1.527792435e-52
1.483516713e-52
2.763053461e-53
6.531800053e-53
1.325358895e-53
3.475238123e-53
2.76860806e-54
1.39759828e-53
3.223837012e-53
2.453173893e-53
2.12636975e-53
5.058525426e-53
5.646314236e-53
2.235017415e-54
7.80501606e-54
4.226983959e-55
1.413048733e-53
5.064562512e-54
5.540603366e-54
1.399734989e-55
4.01627717e-54
4.377013412e-55
3.218034495e-55
0
0
0
1.525684567e-53
7.030103013e-54
1.978984928e-53
0
2.080365377e-53
8.445452952e-54
1.318243077e-53
5.62572096e-55
1.009851984e-53
0
0
2.174826775e-53
1.069525687e-53
1.328541118e-54
7.154732682e-56
0
0
0
5.641117046e-54
6.426338014e-56
7.161470757e-55
0
6.600364915e-55
8.718868598e-56
0
1.102692322e-55
0
5.685415961e-55
6.233939739e-57
1.624026281e-55
5.51325135e-55
3.562498691e-56
7.006000221e-56
7.796616292e-56
1.465016698e-55
1.311611912e-55
8.780481773e-55
9.008507616e-57
3.24712335e-55
2.950730238e-55
6.571280219e-57
3.078912616e-55
1.42801281e-57
6.809703556e-57
7.212469135e-56
6.874256304e-57
2.132059866e-55
1.003703256e-55
7.472172839e-56
6.085546026e-56
3.436786974e-56
0
0
1.816518515e-57
0
9.391325235e-56
4.496765164e-57
0
3.764992424e-57
3.403841934e-56
2.490405054e-55
7.053910535e-57
4.100176599e-55
2.820677236e-55
3.932954635e-56
1.660838283e-55
9.435988827e-55
1.01155213e-55
1.555481531e-55
1.347591673e-56
2.610297615e-55
1.702450408e-55
4.243140649e-55
1.856260806e-55
0
1.224045227e-54
4.168578578e-55
4.620416961e-55
4.498019149e-55
0
0
3.781796666e-56
4.628674944e-56
3.347239866e-55
0
6.351438717e-55
9.495528149e-55
6.099850736e-55
9.807032338e-55
1.947767089e-55
9.767156187e-55
1.255518134e-54
4.128898783e-55
2.263786047e-55
5.810198871e-57
1.644674016e-55
0
9.722105753e-55
8.829982565e-56
3.546350359e-55
0
1.094491121e-56
0
1.87503124e-55
7.442607408e-55
5.110504311e-55
7.733575724e-55
7.747894187e-55
8.336530735e-55
7.923243491e-55
8.830850456e-55
5.257345279e-55
1.373888516e-54
2.063831486e-56
3.030804007e-55
2.098755051e-59
4.619764055e-55
0
7.095628901e-55
1.252115776e-54
5.921609792e-56
8.668185867e-55
6.460706204e-55
3.63364309e-55
2.739458251e-55
3.717179059e-55
5.963882631e-55
1.289829359e-55
0
1.352755061e-55
2.866678112e-55
4.927131142e-56
7.042789011e-56
1.357925021e-55
0
4.014687213e-55
1.507162692e-55
0
2.306589751e-55
4.336869975e-55
0
0
0
6.263151759e-55
2.052794599e-57
2.315118128e-55
5.04775673e-59
5.659378273e-58
1.373826903e-55
1.044433229e-55
1.031761195e-57
6.128079049e-56
2.512761517e-56
1.971966648e-56
7.365323945e-56
7.619763448e-56
1.119564641e-55
2.803169272e-56
0
4.88236355e-58
3.593190709e-57
1.799685622e-55
0
1.725003053e-55
1.670411262e-55
2.002789176e-56
0
0
1.162168004e-55
1.030502088e-57
7.516793361e-57
0
0
0
6.808771816e-56
1.912991917e-55
1.14277472e-55
0
)
;

boundaryField
{
    inlet
    {
        type            fixedValue;
        value           uniform 0;
    }
    outlet
    {
        type            zeroGradient;
    }
    wall
    {
        type            empty;
    }
}


// ************************************************************************* //
