/*--------------------------------*- C++ -*----------------------------------*\
  =========                 |
  \\      /  F ield         | OpenFOAM: The Open Source CFD Toolbox
   \\    /   O peration     | Website:  https://openfoam.org
    \\  /    A nd           | Version:  7
     \\/     M anipulation  |
\*---------------------------------------------------------------------------*/
FoamFile
{
    version     2.0;
    format      ascii;
    class       volScalarField;
    location    "0.000558243009";
    object      C5H11-1;
}
// * * * * * * * * * * * * * * * * * * * * * * * * * * * * * * * * * * * * * //

dimensions      [0 0 0 0 0 0 0];

internalField   nonuniform List<scalar> 
1500
(
6.862960404e-18
2.673985358e-17
5.503115873e-17
8.222709121e-17
1.021950065e-16
1.141752078e-16
1.202824012e-16
1.229925494e-16
1.240574646e-16
1.244329723e-16
1.245531272e-16
1.245883464e-16
1.245978791e-16
1.24600278e-16
1.246008426e-16
1.246009676e-16
1.246009936e-16
1.246009988e-16
1.246009998e-16
1.24601e-16
1.24601e-16
1.24601e-16
1.24601e-16
1.24601e-16
1.24601e-16
1.24601e-16
1.24601e-16
1.24601e-16
1.24601e-16
1.24601e-16
1.24601e-16
1.24601e-16
1.24601e-16
1.24601e-16
1.24601e-16
1.24601e-16
1.24601e-16
1.24601e-16
1.24601e-16
1.24601e-16
1.24601e-16
1.24601e-16
1.24601e-16
1.24601e-16
1.24601e-16
1.24601e-16
1.24601e-16
1.24601e-16
1.24601e-16
1.24601e-16
1.24601e-16
1.24601e-16
1.24601e-16
1.24601e-16
1.24601e-16
1.24601e-16
1.24601e-16
1.24601e-16
1.24601e-16
1.24601e-16
1.24601e-16
1.24601e-16
1.24601e-16
1.24601e-16
1.24601e-16
1.24601e-16
1.24601e-16
1.24601e-16
1.24601e-16
1.24601e-16
1.24601e-16
1.24601e-16
1.24601e-16
1.24601e-16
1.24601e-16
1.24601e-16
1.24601e-16
1.24601e-16
1.24601e-16
1.24601e-16
1.24601e-16
1.24601e-16
1.24601e-16
1.24601e-16
1.24601e-16
1.24601e-16
1.24601e-16
1.24601e-16
1.24601e-16
1.24601e-16
1.24601e-16
1.24601e-16
1.24601e-16
1.24601e-16
1.24601e-16
1.24601e-16
1.24601e-16
1.24601e-16
1.24601e-16
1.24601e-16
1.24601e-16
1.24601e-16
1.24601e-16
1.24601e-16
1.24601e-16
1.24601e-16
1.24601e-16
1.24601e-16
1.24601e-16
1.24601e-16
1.24601e-16
1.24601e-16
1.24601e-16
1.24601e-16
1.24601e-16
1.24601e-16
1.24601e-16
1.24601e-16
1.24601e-16
1.24601e-16
1.24601e-16
1.24601e-16
1.24601e-16
1.24601e-16
1.24601e-16
1.24601e-16
1.24601e-16
1.24601e-16
1.24601e-16
1.24601e-16
1.24601e-16
1.24601e-16
1.24601e-16
1.24601e-16
1.24601e-16
1.24601e-16
1.24601e-16
1.24601e-16
1.24601e-16
1.24601e-16
1.24601e-16
1.24601e-16
1.24601e-16
1.24601e-16
1.24601e-16
1.24601e-16
1.24601e-16
1.24601e-16
1.24601e-16
1.24601e-16
1.24601e-16
1.24601e-16
1.24601e-16
1.24601e-16
1.24601e-16
1.24601e-16
1.24601e-16
1.24601e-16
1.24601e-16
1.24601e-16
1.24601e-16
1.24601e-16
1.24601e-16
1.24601e-16
1.24601e-16
1.24601e-16
1.24601e-16
1.24601e-16
1.24601e-16
1.24601e-16
1.24601e-16
1.24601e-16
1.24601e-16
1.24601e-16
1.24601e-16
1.24601e-16
1.24601e-16
1.24601e-16
1.24601e-16
1.24601e-16
1.24601e-16
1.24601e-16
1.24601e-16
1.24601e-16
1.24601e-16
1.24601e-16
1.24601e-16
1.24601e-16
1.24601e-16
1.24601e-16
1.24601e-16
1.24601e-16
1.24601e-16
1.24601e-16
1.24601e-16
1.24601e-16
1.24601e-16
1.24601e-16
1.24601e-16
1.24601e-16
1.24601e-16
1.24601e-16
1.24601e-16
1.24601e-16
1.24601e-16
1.24601e-16
1.24601e-16
1.24601e-16
1.24601e-16
1.24601e-16
1.24601e-16
1.24601e-16
1.24601e-16
1.24601e-16
1.24601e-16
1.24601e-16
1.24601e-16
1.24601e-16
1.24601e-16
1.24601e-16
1.24601e-16
1.24601e-16
1.24601e-16
1.24601e-16
1.24601e-16
1.24601e-16
1.24601e-16
1.24601e-16
1.24601e-16
1.24601e-16
1.24601e-16
1.24601e-16
1.24601e-16
1.24601e-16
1.24601e-16
1.24601e-16
1.24601e-16
1.24601e-16
1.246010001e-16
1.246010004e-16
1.246010015e-16
1.246010064e-16
1.246010254e-16
1.246010942e-16
1.246013238e-16
1.246020222e-16
1.246039353e-16
1.246085561e-16
1.246179832e-16
1.246323673e-16
1.246362165e-16
1.246375881e-16
1.246390154e-16
1.246405013e-16
1.246420478e-16
1.246436571e-16
1.246453316e-16
1.246470741e-16
1.246488874e-16
1.246507746e-16
1.24652739e-16
1.246547837e-16
1.246569123e-16
1.246591284e-16
1.246614357e-16
1.246638382e-16
1.246663401e-16
1.246689457e-16
1.246716595e-16
1.246744863e-16
1.246774311e-16
1.246804991e-16
1.246836958e-16
1.246870269e-16
1.246904984e-16
1.246941167e-16
1.246978884e-16
1.247018205e-16
1.247059202e-16
1.247101953e-16
1.247146537e-16
1.247193041e-16
1.247241553e-16
1.247292167e-16
1.247344982e-16
1.247400101e-16
1.247457635e-16
1.247517697e-16
1.247580411e-16
1.247645903e-16
1.247714309e-16
1.247785771e-16
1.24786044e-16
1.247938474e-16
1.248020041e-16
1.248105318e-16
1.248194493e-16
1.248287763e-16
1.248385338e-16
1.24848744e-16
1.248594304e-16
1.248706178e-16
1.248823325e-16
1.248946026e-16
1.249074575e-16
1.249209288e-16
1.249350497e-16
1.249498557e-16
1.249653842e-16
1.249816751e-16
1.249987708e-16
1.250167164e-16
1.250355597e-16
1.250553516e-16
1.250761461e-16
1.250980009e-16
1.251209771e-16
1.2514514e-16
1.251705589e-16
1.251973076e-16
1.252254646e-16
1.252551136e-16
1.252863437e-16
1.253192497e-16
1.253539326e-16
1.253905001e-16
1.254290665e-16
1.254697538e-16
1.25512692e-16
1.255580193e-16
1.256058829e-16
1.256564397e-16
1.257098564e-16
1.257663107e-16
1.258259916e-16
1.258891002e-16
1.259558505e-16
1.260264699e-16
1.261012006e-16
1.261802997e-16
1.262640407e-16
1.263527141e-16
1.264466286e-16
1.265461118e-16
1.266515117e-16
1.267631975e-16
1.268815608e-16
1.27007017e-16
1.271400065e-16
1.272809957e-16
1.274304788e-16
1.27588979e-16
1.2775705e-16
1.279352774e-16
1.281242806e-16
1.283247139e-16
1.285372687e-16
1.287626748e-16
1.290017023e-16
1.292551635e-16
1.295239146e-16
1.298088578e-16
1.301109429e-16
1.304311696e-16
1.307705893e-16
1.311303072e-16
1.315114844e-16
1.319153401e-16
1.323431534e-16
1.327962656e-16
1.332760826e-16
1.337840767e-16
1.343217888e-16
1.348908308e-16
1.354928876e-16
1.361297189e-16
1.368031622e-16
1.375151338e-16
1.382676316e-16
1.390627369e-16
1.399026163e-16
1.407895235e-16
1.417258014e-16
1.427138834e-16
1.437562957e-16
1.448556582e-16
1.460146864e-16
1.472361926e-16
1.485230871e-16
1.498783793e-16
1.513051786e-16
1.528066952e-16
1.543862409e-16
1.560472294e-16
1.577931763e-16
1.596276998e-16
1.6155452e-16
1.635774589e-16
1.657004397e-16
1.679274859e-16
1.702627207e-16
1.727103653e-16
1.752747376e-16
1.779602502e-16
1.80771409e-16
1.8371281e-16
1.867891375e-16
1.900051607e-16
1.933657312e-16
1.968757789e-16
2.005403087e-16
2.043643968e-16
2.083531859e-16
2.12511881e-16
2.168457446e-16
2.213600917e-16
2.260602842e-16
2.309517258e-16
2.360398558e-16
2.413301429e-16
2.468280797e-16
2.52539175e-16
2.584689484e-16
2.646229221e-16
2.710066149e-16
2.776255344e-16
2.844851696e-16
2.915909837e-16
2.989484062e-16
3.065628255e-16
3.144395808e-16
3.225839547e-16
3.310011651e-16
3.396963575e-16
3.486745976e-16
3.57940863e-16
3.675000361e-16
3.773568965e-16
3.875161137e-16
3.9798224e-16
4.087597036e-16
4.198528018e-16
4.312656949e-16
4.430023999e-16
4.550667848e-16
4.674625632e-16
4.801932896e-16
4.932623544e-16
5.066729804e-16
5.204282186e-16
5.34530946e-16
5.489838623e-16
5.637894887e-16
5.789501663e-16
5.944680557e-16
6.103451371e-16
6.265832114e-16
6.431839015e-16
6.601486547e-16
6.774787465e-16
6.951752838e-16
7.132392109e-16
7.316713146e-16
7.504722313e-16
7.696424549e-16
7.891823455e-16
8.090921393e-16
8.293719593e-16
8.500218276e-16
8.710416781e-16
8.924313711e-16
9.141907083e-16
9.363194498e-16
9.588173315e-16
9.816840845e-16
1.004919455e-15
1.028523227e-15
1.052495244e-15
1.076835434e-15
1.101543834e-15
1.126620619e-15
1.152066132e-15
1.177880908e-15
1.204065712e-15
1.230621568e-15
1.257549797e-15
1.28485205e-15
1.312530347e-15
1.340587119e-15
1.369025244e-15
1.397848094e-15
1.42705958e-15
1.456664195e-15
1.486667063e-15
1.517073994e-15
1.547891527e-15
1.579126992e-15
1.610788561e-15
1.642885306e-15
1.675427261e-15
1.70842548e-15
1.741892103e-15
1.775840422e-15
1.810284946e-15
1.845241473e-15
1.880727161e-15
1.916760603e-15
1.953361902e-15
1.990552751e-15
2.028356511e-15
2.066798299e-15
2.105905072e-15
2.145705715e-15
2.186231131e-15
2.227514347e-15
2.269590599e-15
2.312497422e-15
2.356274756e-15
2.400965059e-15
2.446613406e-15
2.493267608e-15
2.540978318e-15
2.589799148e-15
2.639786786e-15
2.691001113e-15
2.743505324e-15
2.797366054e-15
2.852653506e-15
2.909441569e-15
2.967807972e-15
3.027834414e-15
3.089606718e-15
3.153214967e-15
3.218753681e-15
3.286321964e-15
3.356023651e-15
3.427967479e-15
3.502267263e-15
3.579042075e-15
3.658416433e-15
3.740520486e-15
3.825490216e-15
3.913467642e-15
4.004601033e-15
4.099045135e-15
4.196961396e-15
4.298518215e-15
4.403891186e-15
4.513263371e-15
4.626825568e-15
4.744776606e-15
4.867323646e-15
4.994682497e-15
5.127077956e-15
5.26474416e-15
5.407924952e-15
5.556874282e-15
5.711856616e-15
5.873147378e-15
6.041033416e-15
6.215813496e-15
6.397798835e-15
6.587313659e-15
6.784695811e-15
6.9902974e-15
7.204485505e-15
7.427642932e-15
7.660169043e-15
7.902480669e-15
8.155013113e-15
8.41822126e-15
8.692580836e-15
8.978589814e-15
9.276770032e-15
9.587669044e-15
9.911862282e-15
1.024995559e-14
1.060258821e-14
1.09704364e-14
1.135421771e-14
1.175469629e-14
1.217268924e-14
1.26090746e-14
1.306480109e-14
1.35409003e-14
1.403850195e-14
1.455885298e-14
1.510334156e-14
1.567352743e-14
1.627118023e-14
1.6898328e-14
1.755731881e-14
1.825089888e-14
1.898231201e-14
1.975542603e-14
2.057489381e-14
2.144635839e-14
2.237671435e-14
2.337444105e-14
2.445002767e-14
2.561651526e-14
2.689018828e-14
2.829145705e-14
2.984598373e-14
3.15861192e-14
3.355273698e-14
3.579757366e-14
3.838621608e-14
4.140191377e-14
4.495044482e-14
4.916632613e-14
5.422073921e-14
6.033164529e-14
6.777669419e-14
7.690969761e-14
8.818165063e-14
1.021675555e-13
1.196006477e-13
1.414160649e-13
1.688065591e-13
2.032935718e-13
2.468178973e-13
3.018553287e-13
3.715641536e-13
4.599732562e-13
5.722219799e-13
7.148659581e-13
8.962670103e-13
1.127090142e-12
1.420936979e-12
1.795152953e-12
2.271855718e-12
2.879245169e-12
3.653271806e-12
4.639760938e-12
5.897116559e-12
7.499762019e-12
9.542516825e-12
1.214616217e-11
1.546451511e-11
1.969341623e-11
2.508214235e-11
3.194789041e-11
4.069414709e-11
5.183396993e-11
6.601946952e-11
8.407911118e-11
1.070648628e-10
1.363117215e-10
1.735127759e-10
2.208137267e-10
2.809317249e-10
3.573045268e-10
4.542773362e-10
5.773363542e-10
7.334000113e-10
9.311811578e-10
1.181636162e-09
1.498519927e-09
1.899069281e-09
2.404841014e-09
3.042734884e-09
3.846236183e-09
4.856916615e-09
6.126236093e-09
7.717691206e-09
9.70935805e-09
1.219687727e-08
1.529692698e-08
1.91512237e-08
2.393108271e-08
2.98425556e-08
3.713214521e-08
4.609307646e-08
5.707207557e-08
7.047658307e-08
8.678229754e-08
1.065409213e-07
1.303879581e-07
1.590503977e-07
1.933541155e-07
2.342308167e-07
2.827243619e-07
3.399963305e-07
4.073307078e-07
4.861376389e-07
5.779562838e-07
6.844569488e-07
8.074428524e-07
9.488521688e-07
1.110761116e-06
1.295389431e-06
1.505109816e-06
1.742463716e-06
2.010186137e-06
2.311240471e-06
2.648855724e-06
3.026383853e-06
3.447920506e-06
3.915845875e-06
4.435073512e-06
5.003617534e-06
5.612527366e-06
6.224619934e-06
6.812645097e-06
7.321438897e-06
7.671061947e-06
7.756952968e-06
7.484983637e-06
6.850784062e-06
5.979491633e-06
5.048408303e-06
4.203397047e-06
3.502863394e-06
2.939208153e-06
2.513636964e-06
2.180109396e-06
1.903789575e-06
1.651662541e-06
1.414616302e-06
1.181906094e-06
9.571343124e-07
7.478987237e-07
5.644853892e-07
4.102976423e-07
2.879047368e-07
1.960505779e-07
1.305993038e-07
8.57383899e-08
5.559853537e-08
3.599331037e-08
2.321574572e-08
1.501235748e-08
9.723171448e-09
6.310791522e-09
4.106509513e-09
2.681931003e-09
1.746948884e-09
1.134898579e-09
7.380853738e-10
4.808512471e-10
3.136497168e-10
2.047435189e-10
1.337934143e-10
8.750043892e-11
5.718233461e-11
3.734436463e-11
2.467984071e-11
1.635477844e-11
1.078166765e-11
7.126075161e-12
4.723119394e-12
3.139372585e-12
2.092627569e-12
1.398852536e-12
9.384698017e-13
6.312247416e-13
4.259346735e-13
2.883840768e-13
1.959564395e-13
1.336691537e-13
9.157212342e-14
6.301067833e-14
4.355393749e-14
3.02428845e-14
2.109584666e-14
1.478153419e-14
1.040251374e-14
7.351560995e-15
5.216166308e-15
3.714903518e-15
2.654917138e-15
1.903435955e-15
1.36862118e-15
9.866440678e-16
7.129324205e-16
5.162159604e-16
3.744575092e-16
2.720597395e-16
1.979383519e-16
1.441863996e-16
1.051438392e-16
7.674621301e-17
5.606656097e-17
4.099176708e-17
2.999290022e-17
2.196159345e-17
1.609303858e-17
1.18020318e-17
8.662551245e-18
6.364153337e-18
4.680432264e-18
3.446158884e-18
2.540681971e-18
1.875858878e-18
1.38726915e-18
1.027811901e-18
7.630361706e-19
5.677335867e-19
4.23450879e-19
3.16673208e-19
2.374970312e-19
1.786603756e-19
1.34834139e-19
1.021042159e-19
7.759264072e-20
5.918065129e-20
4.530621348e-20
3.481588086e-20
2.685636762e-20
2.079514999e-20
1.616228896e-20
1.260777008e-20
9.870192838e-21
7.753764877e-21
6.111376569e-21
4.832130207e-21
3.832135737e-21
3.04770422e-21
2.430303511e-21
1.942810924e-21
1.55672209e-21
1.250066062e-21
1.005843194e-21
8.108508866e-22
6.54797874e-22
5.296336888e-22
4.29039183e-22
3.48037963e-22
2.826988828e-22
2.299073735e-22
1.871890041e-22
1.525728248e-22
1.244851284e-22
1.016665604e-22
8.310722013e-23
6.799567887e-23
5.567880291e-23
4.562999691e-23
3.742403162e-23
3.07170382e-23
2.523056922e-23
2.073887068e-23
1.705869647e-23
1.404114129e-23
1.156507997e-23
9.531888462e-24
7.861189313e-24
6.487417912e-24
5.357047347e-24
4.42634276e-24
3.659542031e-24
3.027380216e-24
2.50589156e-24
2.075435904e-24
1.719906732e-24
1.426086395e-24
1.183120711e-24
9.820905116e-25
8.156619498e-25
6.778008957e-25
5.635394921e-25
4.68785213e-25
3.901645778e-25
3.248951434e-25
2.706805893e-25
2.256246716e-25
1.881606098e-25
1.569930985e-25
1.3105066e-25
1.09446468e-25
9.144611666e-26
7.644108873e-26
6.392690136e-26
5.348509437e-26
4.476837674e-26
3.748837054e-26
3.140549229e-26
2.632059413e-26
2.2068055e-26
1.851006699e-26
1.553190761e-26
1.303802567e-26
1.09487989e-26
9.197846839e-27
7.729802406e-27
6.498463157e-27
5.465256567e-27
4.597965416e-27
3.869668647e-27
3.257860815e-27
2.743719666e-27
2.311496612e-27
1.948009242e-27
1.642218594e-27
1.384876841e-27
1.16823355e-27
9.857906433e-28
8.320979107e-28
7.025822688e-28
5.934051476e-28
5.013433127e-28
4.2368923e-28
3.581677335e-28
3.028662986e-28
2.561766761e-28
2.167460158e-28
1.834359201e-28
1.552881281e-28
1.31495745e-28
1.113791105e-28
9.436555304e-29
7.997239505e-29
6.779268382e-29
5.748320587e-29
4.87544159e-29
4.136197152e-29
3.509961538e-29
2.979318812e-29
2.529559083e-29
2.148254508e-29
1.824902305e-29
1.550624092e-29
1.317912585e-29
1.120418127e-29
9.527687341e-30
8.104183491e-30
6.895188377e-30
5.868119897e-30
4.995383664e-30
4.253603461e-30
3.622971384e-30
3.086698897e-30
2.630553006e-30
2.242464243e-30
1.912195257e-30
1.631060567e-30
1.391689509e-30
1.187825679e-30
1.014157201e-30
8.661730439e-31
7.400413681e-31
6.325064882e-31
5.408015864e-31
4.625747496e-31
3.95826281e-31
3.388555533e-31
2.902159431e-31
2.486766049e-31
2.131900421e-31
1.828645873e-31
1.56941044e-31
1.347728556e-31
1.15809265e-31
9.958101078e-32
8.568817476e-32
7.378985507e-32
6.359538863e-32
5.485688873e-32
4.736289926e-32
4.093299734e-32
3.541320154e-32
3.067206453e-32
2.659734752e-32
2.30931891e-32
2.007769454e-32
1.748088265e-32
1.524293671e-32
1.331271421e-32
1.164647674e-32
1.020680735e-32
8.961687403e-33
7.883709421e-33
6.94940555e-33
6.138674689e-33
5.434293601e-33
4.821499637e-33
4.287634489e-33
3.821839993e-33
3.414798309e-33
3.058509961e-33
2.746104177e-33
2.471676795e-33
2.23015169e-33
2.017162289e-33
1.828950232e-33
1.662278686e-33
1.514358168e-33
1.382783057e-33
1.265477243e-33
1.160647587e-33
1.06674406e-33
9.82425583e-34
9.065307619e-34
8.380527916e-34
7.761179396e-34
7.199670883e-34
6.689398975e-34
6.224612095e-34
5.800293753e-34
5.412062276e-34
5.056084636e-34
4.729002368e-34
4.427867853e-34
4.150089498e-34
3.893384526e-34
3.655738328e-34
3.43536941e-34
3.230699181e-34
3.040325881e-34
2.863002056e-34
2.697615107e-34
2.543170459e-34
2.398776998e-34
2.263634463e-34
2.137022497e-34
2.018291155e-34
1.90685266e-34
1.802174225e-34
1.703771805e-34
1.611204648e-34
1.524070539e-34
1.442001638e-34
1.364660843e-34
1.291738592e-34
1.222950058e-34
1.15803268e-34
1.096743987e-34
1.038859674e-34
9.841719011e-35
9.32487789e-35
8.836280744e-35
8.374259195e-35
7.937258457e-35
7.523827844e-35
7.132612224e-35
6.762344351e-35
6.411837979e-35
6.079981629e-35
5.765732975e-35
5.468113736e-35
5.186205046e-35
4.919143226e-35
4.666115957e-35
4.426358746e-35
4.199151711e-35
3.983816637e-35
3.779714236e-35
3.586241656e-35
3.402830167e-35
3.228943027e-35
3.064073498e-35
2.907743018e-35
2.759499492e-35
2.618915714e-35
2.485587887e-35
2.359134247e-35
2.239193786e-35
2.125425048e-35
2.017505004e-35
1.915128012e-35
1.818004828e-35
1.725861678e-35
1.638439401e-35
1.555492629e-35
1.476789029e-35
1.402108579e-35
1.331242895e-35
1.263994595e-35
1.200176697e-35
1.13961206e-35
1.082132842e-35
1.027580006e-35
9.758028432e-36
9.266585248e-36
8.800116862e-36
8.357340207e-36
7.937039075e-36
7.538060553e-36
7.159311665e-36
6.79975619e-36
6.458411678e-36
6.134346596e-36
5.826677642e-36
5.534567202e-36
5.257220975e-36
4.993885662e-36
4.743846857e-36
4.506426976e-36
4.280983352e-36
4.066906397e-36
3.863617884e-36
3.670569311e-36
3.487240347e-36
3.313137385e-36
3.147792121e-36
2.990760271e-36
2.841620321e-36
2.699972316e-36
2.565436782e-36
2.437653641e-36
2.316281218e-36
2.200995288e-36
2.09148818e-36
1.987467918e-36
1.888657404e-36
1.794793662e-36
1.705627117e-36
1.620920884e-36
1.540450139e-36
1.464001485e-36
1.39137237e-36
1.322370525e-36
1.256813447e-36
1.194527888e-36
1.135349387e-36
1.079121824e-36
1.025696981e-36
9.749341454e-37
9.2669973e-37
8.808669023e-37
8.373152422e-37
7.959304152e-37
7.566038677e-37
7.192325208e-37
6.83718498e-37
6.499688605e-37
6.17895358e-37
5.874141844e-37
5.584457572e-37
5.309144978e-37
5.047486361e-37
4.798800117e-37
4.562438887e-37
4.33778786e-37
4.124263122e-37
3.921310089e-37
3.728402002e-37
3.545038556e-37
3.370744517e-37
3.205068483e-37
3.047581679e-37
2.897876813e-37
2.755566976e-37
2.620284627e-37
2.491680638e-37
2.369423331e-37
2.253197606e-37
2.142704095e-37
2.037658416e-37
1.937790372e-37
1.842843251e-37
1.752573152e-37
1.666748362e-37
1.585148692e-37
1.507564946e-37
1.433798345e-37
1.363660013e-37
1.296970476e-37
1.233559196e-37
1.173264119e-37
1.11593125e-37
1.061414249e-37
1.009574046e-37
9.60278491e-38
9.134019947e-38
8.688252002e-38
8.264346682e-38
7.86122599e-38
7.477865338e-38
7.11329094e-38
6.766577257e-38
6.43684467e-38
6.123257054e-38
5.825019713e-38
5.541377386e-38
5.271612037e-38
5.015041201e-38
4.771016172e-38
4.538920278e-38
4.318167363e-38
4.108200216e-38
3.908489147e-38
3.718530652e-38
3.537846046e-38
3.365980217e-38
3.20250053e-38
3.046995707e-38
2.899074719e-38
2.758365822e-38
2.624515571e-38
2.49718793e-38
2.376063423e-38
2.260838261e-38
2.15122362e-38
2.046944859e-38
1.947740879e-38
1.85336339e-38
1.763576318e-38
1.678155155e-38
1.596886432e-38
1.519567143e-38
1.446004258e-38
1.37601419e-38
1.309422387e-38
1.2460628e-38
1.185777558e-38
1.128416507e-38
1.073836826e-38
1.021902686e-38
9.724849123e-39
9.25460628e-39
8.807129673e-39
8.381307685e-39
7.976082746e-39
7.590448835e-39
7.223449173e-39
6.874173396e-39
6.541755294e-39
6.225370896e-39
5.924236202e-39
5.637605225e-39
5.364768092e-39
5.105049337e-39
4.857806024e-39
4.622426432e-39
4.398328274e-39
4.184957129e-39
3.981785453e-39
3.788310912e-39
3.604055338e-39
3.428563576e-39
3.261402166e-39
3.102158585e-39
2.950440277e-39
2.805873648e-39
2.668103598e-39
2.536792848e-39
2.411621683e-39
2.292288004e-39
2.178507516e-39
2.070015024e-39
1.9665662e-39
1.867941066e-39
1.773949287e-39
1.684438564e-39
1.599307702e-39
1.518526592e-39
1.442166367e-39
1.370445334e-39
8.280394315e-40
4.195768274e-40
2.121090919e-40
1.070344907e-40
5.388275337e-41
2.705310118e-41
1.354462651e-41
6.761775697e-42
3.365645225e-42
1.67018948e-42
8.26290885e-43
4.075202536e-43
2.003537804e-43
9.818909267e-44
4.796746337e-44
2.335772175e-44
1.133711486e-44
5.485100888e-45
2.645233192e-45
1.271644419e-45
6.094109428e-46
2.911130004e-46
1.386286324e-46
6.583281898e-47
3.116681185e-47
1.471476188e-47
6.928098713e-48
3.253736335e-48
1.524482305e-48
7.127446045e-49
3.325610523e-49
1.550532599e-49
7.221047192e-50
3.361650175e-50
1.570499699e-50
7.356240641e-51
3.462075254e-51
1.646658388e-51
7.947199057e-52
3.897521873e-52
1.995062235e-52
1.046993244e-52
5.859998114e-53
3.469685038e-53
2.115969286e-53
1.29570319e-53
8.032504605e-54
5.812752827e-54
3.634117181e-54
2.56567043e-54
1.835253323e-54
1.305722599e-54
8.6495065e-55
6.103855824e-55
4.346922362e-55
3.300218113e-55
2.331463163e-55
1.610392125e-55
1.136126389e-55
7.69960688e-56
5.540174021e-56
3.807443321e-56
2.713967426e-56
1.882688503e-56
1.321930898e-56
9.214296806e-57
6.474364233e-57
4.522091655e-57
3.138863052e-57
2.181261333e-57
1.497141227e-57
1.039145534e-57
7.371452867e-58
4.846703062e-58
3.129512249e-58
2.166104353e-58
2.647501388e-58
1.670573732e-58
9.366558219e-59
3.840954185e-59
4.158817872e-59
4.06142006e-59
3.95745004e-59
4.463965317e-59
1.435850451e-59
1.082474238e-59
1.431522124e-59
7.652379586e-60
2.372026731e-59
1.631037141e-59
6.508758374e-60
1.212061684e-60
1.106095336e-60
4.092104776e-62
7.867968792e-61
1.466204972e-61
0
0
5.378375721e-63
7.672073605e-61
5.687447909e-62
4.93174608e-60
1.443685071e-60
2.82359814e-60
3.315123347e-60
0
0
0
1.105314565e-60
4.476547037e-62
1.650097823e-60
1.130883329e-60
3.155222112e-62
8.844844029e-61
1.592606678e-60
8.01793929e-61
1.372364383e-60
2.102537202e-61
3.009979629e-61
7.312942707e-61
9.178487865e-61
1.138757295e-61
1.415203521e-60
5.814499729e-61
9.363922059e-61
6.220012643e-61
0
1.249694233e-61
6.59833875e-63
2.997537965e-61
1.361801308e-61
0
3.160825135e-61
1.454523069e-62
4.564770038e-61
5.043657376e-61
0
4.965079123e-61
1.050049406e-60
5.645336411e-61
0
1.344482024e-62
1.637889526e-60
5.476899459e-61
3.408953175e-61
0
0
1.666118437e-60
2.589548238e-60
1.709502778e-60
2.826778929e-60
6.71317319e-61
1.887529579e-60
0
4.333485195e-61
9.421457811e-63
1.915326216e-62
0
1.206442651e-60
1.99173603e-60
3.628741897e-60
4.178021073e-60
1.386899046e-60
2.881086059e-60
6.614558807e-60
0
2.190656126e-60
1.232429677e-61
4.255047898e-61
1.21394553e-60
0
0
0
0
1.777224724e-60
0
3.714058818e-60
5.864448551e-61
2.092888562e-60
2.908715556e-60
6.512228966e-60
4.932001869e-60
1.502145407e-60
3.530910157e-60
3.972956138e-60
6.60502229e-61
4.210514241e-61
5.406369686e-61
1.97297055e-60
5.675217264e-61
2.166587542e-60
1.08667555e-60
5.326748164e-62
3.764128557e-60
4.301348587e-60
5.45854109e-61
3.762186211e-60
8.113091721e-61
1.948855967e-60
0
0
0
2.439406072e-61
0
0
0
9.74601762e-61
5.324934773e-61
1.042020602e-61
2.528988937e-61
2.958717059e-61
5.461953504e-61
3.090716423e-61
0
0
8.484820269e-61
1.153849258e-62
7.45330723e-61
6.475686429e-63
1.548794313e-61
1.932313677e-61
1.255997518e-61
7.574831115e-64
8.149352507e-62
0
2.502404098e-61
1.038896034e-61
2.880615004e-61
0
0
3.859384126e-61
3.655873977e-61
1.06533268e-61
3.991418193e-61
3.045369911e-62
6.121752815e-61
1.227680692e-61
8.779065644e-61
1.455517755e-61
0
0
0
4.405696493e-63
2.319552075e-62
0
0
0
0
1.383493593e-61
0
)
;

boundaryField
{
    inlet
    {
        type            fixedValue;
        value           uniform 0;
    }
    outlet
    {
        type            zeroGradient;
    }
    wall
    {
        type            empty;
    }
}


// ************************************************************************* //
