/*--------------------------------*- C++ -*----------------------------------*\
  =========                 |
  \\      /  F ield         | OpenFOAM: The Open Source CFD Toolbox
   \\    /   O peration     | Website:  https://openfoam.org
    \\  /    A nd           | Version:  7
     \\/     M anipulation  |
\*---------------------------------------------------------------------------*/
FoamFile
{
    version     2.0;
    format      ascii;
    class       volScalarField;
    location    "0.000558243009";
    object      C5H10-1;
}
// * * * * * * * * * * * * * * * * * * * * * * * * * * * * * * * * * * * * * //

dimensions      [0 0 0 0 0 0 0];

internalField   nonuniform List<scalar> 
1500
(
9.013295682e-16
3.507146531e-15
7.211622242e-15
1.076403673e-14
1.336473688e-14
1.492024705e-14
1.571066052e-14
1.606026118e-14
1.619716833e-14
1.624527774e-14
1.626061769e-14
1.626509801e-14
1.62663063e-14
1.626660926e-14
1.62666803e-14
1.626669595e-14
1.626669921e-14
1.626669985e-14
1.626669997e-14
1.62667e-14
1.62667e-14
1.62667e-14
1.62667e-14
1.62667e-14
1.62667e-14
1.62667e-14
1.62667e-14
1.62667e-14
1.62667e-14
1.62667e-14
1.62667e-14
1.62667e-14
1.62667e-14
1.62667e-14
1.62667e-14
1.62667e-14
1.62667e-14
1.62667e-14
1.62667e-14
1.62667e-14
1.62667e-14
1.62667e-14
1.62667e-14
1.62667e-14
1.62667e-14
1.62667e-14
1.62667e-14
1.62667e-14
1.62667e-14
1.62667e-14
1.62667e-14
1.62667e-14
1.62667e-14
1.62667e-14
1.62667e-14
1.62667e-14
1.62667e-14
1.62667e-14
1.62667e-14
1.62667e-14
1.62667e-14
1.62667e-14
1.62667e-14
1.62667e-14
1.62667e-14
1.62667e-14
1.62667e-14
1.62667e-14
1.62667e-14
1.62667e-14
1.62667e-14
1.62667e-14
1.62667e-14
1.62667e-14
1.62667e-14
1.62667e-14
1.62667e-14
1.62667e-14
1.62667e-14
1.62667e-14
1.62667e-14
1.62667e-14
1.62667e-14
1.62667e-14
1.62667e-14
1.62667e-14
1.62667e-14
1.62667e-14
1.62667e-14
1.62667e-14
1.62667e-14
1.62667e-14
1.62667e-14
1.62667e-14
1.62667e-14
1.62667e-14
1.62667e-14
1.62667e-14
1.62667e-14
1.62667e-14
1.62667e-14
1.62667e-14
1.62667e-14
1.62667e-14
1.62667e-14
1.62667e-14
1.62667e-14
1.62667e-14
1.62667e-14
1.62667e-14
1.62667e-14
1.62667e-14
1.62667e-14
1.62667e-14
1.62667e-14
1.62667e-14
1.62667e-14
1.62667e-14
1.62667e-14
1.62667e-14
1.62667e-14
1.62667e-14
1.62667e-14
1.62667e-14
1.62667e-14
1.62667e-14
1.62667e-14
1.62667e-14
1.62667e-14
1.62667e-14
1.62667e-14
1.62667e-14
1.62667e-14
1.62667e-14
1.62667e-14
1.62667e-14
1.62667e-14
1.62667e-14
1.62667e-14
1.62667e-14
1.62667e-14
1.62667e-14
1.62667e-14
1.62667e-14
1.62667e-14
1.62667e-14
1.62667e-14
1.62667e-14
1.62667e-14
1.62667e-14
1.62667e-14
1.62667e-14
1.62667e-14
1.62667e-14
1.62667e-14
1.62667e-14
1.62667e-14
1.62667e-14
1.62667e-14
1.62667e-14
1.62667e-14
1.62667e-14
1.62667e-14
1.62667e-14
1.62667e-14
1.62667e-14
1.62667e-14
1.62667e-14
1.62667e-14
1.62667e-14
1.62667e-14
1.62667e-14
1.62667e-14
1.62667e-14
1.62667e-14
1.62667e-14
1.62667e-14
1.62667e-14
1.62667e-14
1.62667e-14
1.62667e-14
1.62667e-14
1.62667e-14
1.62667e-14
1.62667e-14
1.62667e-14
1.62667e-14
1.62667e-14
1.62667e-14
1.62667e-14
1.62667e-14
1.62667e-14
1.62667e-14
1.62667e-14
1.62667e-14
1.62667e-14
1.62667e-14
1.62667e-14
1.62667e-14
1.62667e-14
1.62667e-14
1.62667e-14
1.62667e-14
1.62667e-14
1.62667e-14
1.62667e-14
1.62667e-14
1.62667e-14
1.62667e-14
1.62667e-14
1.62667e-14
1.62667e-14
1.62667e-14
1.62667e-14
1.62667e-14
1.62667e-14
1.62667e-14
1.62667e-14
1.62667e-14
1.62667e-14
1.62667e-14
1.62667e-14
1.62667e-14
1.62667e-14
1.62667e-14
1.62667e-14
1.62667e-14
1.62667e-14
1.62667e-14
1.62667e-14
1.62667e-14
1.62667e-14
1.62667e-14
1.62667e-14
1.62667e-14
1.62667e-14
1.62667e-14
1.62667e-14
1.626670001e-14
1.626670003e-14
1.626670012e-14
1.626670049e-14
1.626670202e-14
1.62667079e-14
1.626672867e-14
1.626679539e-14
1.626698786e-14
1.62674757e-14
1.626851507e-14
1.627015535e-14
1.627056677e-14
1.627072059e-14
1.627088078e-14
1.627104766e-14
1.627122145e-14
1.62714024e-14
1.627159081e-14
1.627178699e-14
1.627199128e-14
1.627220402e-14
1.627242559e-14
1.627265636e-14
1.627289674e-14
1.627314713e-14
1.627340799e-14
1.627367975e-14
1.62739629e-14
1.627425794e-14
1.627456538e-14
1.627488578e-14
1.627521971e-14
1.627556776e-14
1.627593057e-14
1.627630878e-14
1.62767031e-14
1.627711424e-14
1.627754296e-14
1.627799006e-14
1.627845636e-14
1.627894274e-14
1.627945012e-14
1.627997946e-14
1.628053177e-14
1.628110811e-14
1.62817096e-14
1.628233741e-14
1.628299277e-14
1.628367697e-14
1.628439139e-14
1.628513745e-14
1.628591667e-14
1.628673064e-14
1.628758102e-14
1.62884696e-14
1.628939823e-14
1.629036887e-14
1.62913836e-14
1.629244461e-14
1.62935542e-14
1.629471481e-14
1.629592904e-14
1.629719959e-14
1.629852937e-14
1.629992141e-14
1.630137895e-14
1.630290543e-14
1.630450445e-14
1.630617986e-14
1.630793575e-14
1.630977643e-14
1.63117065e-14
1.631373082e-14
1.631585456e-14
1.631808324e-14
1.632042268e-14
1.63228791e-14
1.63254591e-14
1.632816971e-14
1.633101842e-14
1.633401317e-14
1.633716246e-14
1.634047531e-14
1.634396133e-14
1.634763078e-14
1.635149458e-14
1.635556437e-14
1.635985257e-14
1.636437242e-14
1.636913803e-14
1.637416446e-14
1.637946775e-14
1.638506505e-14
1.639097462e-14
1.639721594e-14
1.640380981e-14
1.641077839e-14
1.641814532e-14
1.642593583e-14
1.643417681e-14
1.644289693e-14
1.645212676e-14
1.646189887e-14
1.647224799e-14
1.64832111e-14
1.649482761e-14
1.650713949e-14
1.652019141e-14
1.653403093e-14
1.654870863e-14
1.656427833e-14
1.658079726e-14
1.659832624e-14
1.66169299e-14
1.663667686e-14
1.665764001e-14
1.667989666e-14
1.670352884e-14
1.672862351e-14
1.675527282e-14
1.678357439e-14
1.681363156e-14
1.684555365e-14
1.687945633e-14
1.69154618e-14
1.695369918e-14
1.699430481e-14
1.703742251e-14
1.708320398e-14
1.713180908e-14
1.71834062e-14
1.723817256e-14
1.72962946e-14
1.735796832e-14
1.742339961e-14
1.749280463e-14
1.756641016e-14
1.764445395e-14
1.772718508e-14
1.781486434e-14
1.790776455e-14
1.80061709e-14
1.811038133e-14
1.822070686e-14
1.833747188e-14
1.84610145e-14
1.859168686e-14
1.872985542e-14
1.887590121e-14
1.903022014e-14
1.919322323e-14
1.93653368e-14
1.954700275e-14
1.973867867e-14
1.994083804e-14
2.015397036e-14
2.037858123e-14
2.061519245e-14
2.086434204e-14
2.112658425e-14
2.140248957e-14
2.169264461e-14
2.199765203e-14
2.23181304e-14
2.265471401e-14
2.300805263e-14
2.337881126e-14
2.376766982e-14
2.417532276e-14
2.460247869e-14
2.504985988e-14
2.55182018e-14
2.600825255e-14
2.652077225e-14
2.70565324e-14
2.761631518e-14
2.820091271e-14
2.881112624e-14
2.944776531e-14
3.011164689e-14
3.080359439e-14
3.152443673e-14
3.227500729e-14
3.305614289e-14
3.386868263e-14
3.47134668e-14
3.559133569e-14
3.65031284e-14
3.744968159e-14
3.843182824e-14
3.945039639e-14
4.050620781e-14
4.160007671e-14
4.273280841e-14
4.390519803e-14
4.511802914e-14
4.637207244e-14
4.766808443e-14
4.900680613e-14
5.038896175e-14
5.181525741e-14
5.328637996e-14
5.480299566e-14
5.63657491e-14
5.797526199e-14
5.96321321e-14
6.13369322e-14
6.309020911e-14
6.489248273e-14
6.674424523e-14
6.864596025e-14
7.05980622e-14
7.260095562e-14
7.465501469e-14
7.676058276e-14
7.891797203e-14
8.112746331e-14
8.338930587e-14
8.570371748e-14
8.807088444e-14
9.049096188e-14
9.296407406e-14
9.549031488e-14
9.806974847e-14
1.0070241e-13
1.033883065e-13
1.061274181e-13
1.089196989e-13
1.117650785e-13
1.146634639e-13
1.176147404e-13
1.20618774e-13
1.236754133e-13
1.267844918e-13
1.299458299e-13
1.331592379e-13
1.364245184e-13
1.397414694e-13
1.431098876e-13
1.465295711e-13
1.500003238e-13
1.535219584e-13
1.570943006e-13
1.607171935e-13
1.643905015e-13
1.681141153e-13
1.718879566e-13
1.75711983e-13
1.795861936e-13
1.835106344e-13
1.87485404e-13
1.915106599e-13
1.955866245e-13
1.997135918e-13
2.038919347e-13
2.081221111e-13
2.124046724e-13
2.167402705e-13
2.211296659e-13
2.255737365e-13
2.300734853e-13
2.3463005e-13
2.392447119e-13
2.439189058e-13
2.486542292e-13
2.534524531e-13
2.583155325e-13
2.632456166e-13
2.682450611e-13
2.733164388e-13
2.784625521e-13
2.836864452e-13
2.889914168e-13
2.943810339e-13
2.998591437e-13
3.054298912e-13
3.110977301e-13
3.168674374e-13
3.227441289e-13
3.287332758e-13
3.348407199e-13
3.410726911e-13
3.474358232e-13
3.539371714e-13
3.605842297e-13
3.673849483e-13
3.743477519e-13
3.814815576e-13
3.887957945e-13
3.96300421e-13
4.040059467e-13
4.119234524e-13
4.200646114e-13
4.284417102e-13
4.37067673e-13
4.459560834e-13
4.551212055e-13
4.645780076e-13
4.743421877e-13
4.844301983e-13
4.948592727e-13
5.056474508e-13
5.168136071e-13
5.283774786e-13
5.403596942e-13
5.527818048e-13
5.656663147e-13
5.790367144e-13
5.929175145e-13
6.073342805e-13
6.223136703e-13
6.378834721e-13
6.54072645e-13
6.709113609e-13
6.884310488e-13
7.066644413e-13
7.256456232e-13
7.454100832e-13
7.659947679e-13
7.874381391e-13
8.097802342e-13
8.330627299e-13
8.5732901e-13
8.826242368e-13
9.089954268e-13
9.364915314e-13
9.651635218e-13
9.950644799e-13
1.026249695e-12
1.058776764e-12
1.092705706e-12
1.128099071e-12
1.165022074e-12
1.203542718e-12
1.243731948e-12
1.285663799e-12
1.329415564e-12
1.37506798e-12
1.422705425e-12
1.472416137e-12
1.524292462e-12
1.578431123e-12
1.634933532e-12
1.693906148e-12
1.755460879e-12
1.819715571e-12
1.88679457e-12
1.956829408e-12
2.029959627e-12
2.106333793e-12
2.186110748e-12
2.269461172e-12
2.356569542e-12
2.447636622e-12
2.542882614e-12
2.642551205e-12
2.746914738e-12
2.856280893e-12
2.971001291e-12
3.091482638e-12
3.218201154e-12
3.351721313e-12
3.492720172e-12
3.642019022e-12
3.800624553e-12
3.969782472e-12
4.151047315e-12
4.346373422e-12
4.558233493e-12
4.789773122e-12
5.045012263e-12
5.329107895e-12
5.648696513e-12
6.012340713e-12
6.431111523e-12
6.919347752e-12
7.495646148e-12
8.184152491e-12
9.016245039e-12
1.003272945e-11
1.128670047e-11
1.284727265e-11
1.480444377e-11
1.727543431e-11
2.041295042e-11
2.441595285e-11
2.954369068e-11
3.61339875e-11
4.462706592e-11
5.559658377e-11
6.979005918e-11
8.81815168e-11
1.120400378e-10
1.430190014e-10
1.832722392e-10
2.356051841e-10
3.036715051e-10
3.922288466e-10
5.074713305e-10
6.574617137e-10
8.526928491e-10
1.106816825e-09
1.437591405e-09
1.868107864e-09
2.428382944e-09
3.15742153e-09
4.105887242e-09
5.339557249e-09
6.94378745e-09
9.029277561e-09
1.173950594e-08
1.526030548e-08
1.983217934e-08
2.576611539e-08
3.346385677e-08
4.344383293e-08
5.637425834e-08
7.311527652e-08
9.477247452e-08
1.227646297e-07
1.58909186e-07
2.055296968e-07
2.655903258e-07
3.428634522e-07
4.421374842e-07
5.69473105e-07
7.325173277e-07
9.408858488e-07
1.206625176e-06
1.544766762e-06
1.973985737e-06
2.517376687e-06
3.203358056e-06
4.066715054e-06
5.14978831e-06
6.503811872e-06
8.190399603e-06
1.028317378e-05
1.286952402e-05
1.605247908e-05
1.995266912e-05
2.471035203e-05
3.048747509e-05
3.74697426e-05
4.586866112e-05
5.592353665e-05
6.790340176e-05
8.210885563e-05
9.887380571e-05
0.0001185671068
0.0001415941123
0.0001683981433
0.000199461942
0.0002353091715
0.0002765060922
0.0003236636194
0.00037744007
0.0004385451514
0.0005077159185
0.0005858810838
0.0006737647212
0.0007730472803
0.0008848981689
0.001010730032
0.001148066024
0.001300087618
0.001467686516
0.001650940085
0.001848057019
0.002054047762
0.002260590549
0.002458841948
0.002641794819
0.002803801356
0.002939121091
0.003044233251
0.003106213145
0.003119668593
0.003076262186
0.002966701682
0.002791107214
0.002549535412
0.002251659367
0.001910935542
0.001558508752
0.001216721801
0.0009090445416
0.0006513708703
0.0004497792554
0.0003014385741
0.0001969436727
0.0001272592212
8.128605287e-05
5.184648374e-05
3.304566802e-05
2.108334865e-05
1.347996937e-05
8.65100977e-06
5.534399164e-06
3.529915115e-06
2.254888487e-06
1.442843582e-06
9.248415915e-07
5.937657825e-07
3.816377343e-07
2.453066609e-07
1.57366259e-07
1.009307667e-07
6.566996832e-08
4.290731502e-08
2.790666653e-08
1.82331002e-08
1.19735952e-08
7.906038898e-09
5.250507961e-09
3.508199912e-09
2.361074563e-09
1.599197093e-09
1.091093425e-09
7.501161814e-10
5.197650198e-10
3.630450648e-10
2.5562599e-10
1.814297083e-10
1.297756437e-10
9.352806986e-11
6.788991006e-11
4.961469752e-11
3.6489738e-11
2.699569448e-11
2.008129773e-11
1.501345698e-11
1.127695084e-11
8.506876958e-12
6.442848661e-12
4.897715237e-12
3.736040349e-12
2.859180288e-12
2.194857771e-12
1.689820635e-12
1.304633605e-12
1.009956413e-12
7.838656292e-13
6.099149289e-13
4.75721665e-13
3.719311505e-13
2.914538134e-13
2.289006838e-13
1.801638539e-13
1.421034566e-13
1.123132771e-13
8.894466208e-14
7.057382055e-14
5.610153506e-14
4.467716158e-14
3.564088613e-14
2.847974328e-14
2.279403534e-14
1.827163219e-14
1.466825661e-14
1.179232647e-14
9.493273915e-15
7.652523886e-15
6.176510778e-15
4.991260935e-15
4.038180595e-15
3.270773944e-15
2.652080414e-15
2.152669392e-15
1.749067813e-15
1.422524708e-15
1.158038549e-15
9.435900149e-16
7.695356588e-16
6.281278454e-16
5.131339978e-16
4.195340903e-16
3.432799087e-16
2.811031634e-16
2.303623053e-16
1.889200595e-16
1.55045377e-16
1.273348293e-16
1.046495083e-16
8.606430809e-17
7.082711097e-17
5.832590431e-17
4.80622581e-17
3.96299094e-17
3.269745243e-17
2.699433317e-17
2.229950656e-17
1.843224149e-17
1.524466009e-17
1.261567886e-17
1.044608401e-17
8.654525394e-18
7.174254941e-18
5.950469237e-18
4.938142595e-18
4.100258785e-18
3.406367004e-18
2.831401782e-18
2.354717893e-18
1.959300566e-18
1.631118697e-18
1.358594822e-18
1.132170495e-18
9.439496505e-19
7.874057889e-19
6.571414026e-19
5.486902024e-19
4.583544324e-19
3.830709661e-19
3.203010279e-19
2.679393178e-19
2.242390823e-19
1.877502989e-19
1.572686493e-19
1.317933757e-19
1.104924543e-19
9.267380053e-20
7.776144713e-20
6.527582751e-20
5.481744701e-20
4.605335349e-20
3.870592134e-20
3.254354867e-20
2.73729374e-20
2.303268359e-20
1.938795318e-20
1.632605698e-20
1.375277132e-20
1.158927719e-20
9.769612691e-21
8.238551727e-21
6.949836716e-21
5.864705629e-21
4.950663716e-21
4.180458819e-21
3.531226133e-21
2.983774073e-21
2.521987695e-21
2.132330095e-21
1.803425526e-21
1.525710667e-21
1.291142789e-21
1.092955433e-21
9.25453766e-22
7.838431087e-22
6.640851955e-22
5.627776317e-22
4.770527635e-22
4.044928009e-22
3.430585516e-22
2.910295617e-22
2.469538167e-22
2.096054597e-22
1.779492362e-22
1.511105839e-22
1.283504616e-22
1.090441591e-22
9.266345262e-23
7.876157035e-23
6.696052376e-23
5.694042672e-23
4.843048855e-23
4.120141571e-23
3.505900001e-23
2.983870602e-23
2.540110089e-23
2.162799386e-23
1.841917466e-23
1.568965675e-23
1.336734674e-23
1.139107349e-23
9.708920919e-24
8.276817256e-24
7.057341079e-24
6.01871044e-24
5.133926846e-24
4.380050141e-24
3.73758414e-24
3.189955947e-24
2.723074573e-24
2.324956679e-24
1.985409158e-24
1.695759862e-24
1.448629115e-24
1.237735791e-24
1.057732685e-24
9.040667362e-25
7.728602971e-25
6.60810288e-25
5.651025027e-25
4.833387823e-25
4.134751099e-25
3.537689762e-25
3.027346209e-25
2.591049598e-25
2.217991961e-25
1.89895259e-25
1.62606346e-25
1.392609554e-25
1.192858833e-25
1.021917457e-25
8.756064516e-26
7.503566428e-26
6.431191291e-26
5.512889792e-26
4.726401906e-26
4.052702351e-26
3.475527707e-26
2.980973083e-26
2.557148053e-26
2.193883087e-26
1.882479024e-26
1.615493237e-26
1.386557087e-26
1.190220049e-26
1.021816601e-26
8.773525235e-27
7.534077649e-27
6.470534454e-27
5.557809257e-27
4.774411799e-27
4.101929641e-27
3.524584987e-27
3.028855677e-27
2.603151008e-27
2.23753441e-27
1.923486152e-27
1.653700285e-27
1.421910835e-27
1.222743024e-27
1.051585887e-27
9.044831919e-28
7.78040017e-28
6.693427308e-28
5.758904349e-28
4.955362233e-28
4.264368426e-28
3.670095473e-28
3.15895114e-28
2.719261331e-28
2.340998196e-28
2.015546964e-28
1.73550595e-28
1.494515003e-28
1.287108322e-28
1.108588164e-28
9.549164734e-29
8.226218557e-29
7.087197393e-29
6.106438278e-29
5.261872465e-29
4.534520054e-29
3.90805597e-29
3.368437185e-29
2.903582486e-29
2.503097373e-29
2.15803768e-29
1.860706456e-29
1.604479408e-29
1.383654858e-29
1.193324782e-29
1.029263936e-29
8.878345269e-30
7.659042518e-30
6.607758058e-30
5.701262615e-30
4.919549249e-30
4.245384817e-30
3.663924083e-30
3.162377708e-30
2.72972657e-30
2.356475909e-30
2.034443751e-30
1.756578783e-30
1.516803597e-30
1.309879731e-30
1.131291478e-30
9.771458427e-31
8.440863899e-31
7.292190557e-31
6.300482463e-31
5.444217998e-31
4.704835742e-31
4.066326021e-31
3.514878997e-31
3.038581446e-31
2.627155467e-31
2.2717333e-31
1.964663252e-31
1.699342417e-31
1.470072476e-31
1.271935393e-31
1.100686235e-31
9.526607696e-32
8.246957781e-32
7.140603443e-32
6.183965908e-32
5.356685665e-32
4.641181575e-32
4.022270551e-32
3.486839454e-32
3.023562012e-32
2.622654569e-32
2.275665323e-32
1.975292444e-32
1.715227102e-32
1.490017992e-32
1.294954386e-32
1.125965191e-32
9.795318043e-33
8.526128733e-33
7.425793361e-33
6.471583285e-33
5.643847467e-33
4.92559416e-33
4.302129631e-33
3.760746111e-33
3.290452264e-33
2.881740331e-33
2.526384987e-33
2.217269541e-33
1.948235781e-33
1.713954217e-33
1.509811955e-33
1.331815794e-33
1.176508476e-33
1.040896294e-33
9.223865239e-34
8.187333234e-34
7.279909731e-34
6.4847344e-34
5.787194176e-34
5.174620924e-34
4.636029991e-34
4.161894092e-34
3.74394772e-34
3.375017962e-34
3.048878148e-34
2.760121215e-34
2.504050148e-34
2.27658316e-34
2.074171655e-34
1.893729198e-34
1.732570046e-34
1.588355931e-34
1.459049978e-34
1.342876808e-34
1.23828798e-34
1.143932064e-34
1.05862871e-34
9.813461847e-35
9.111819007e-35
8.47345546e-35
7.891444571e-35
7.359709296e-35
6.872912273e-35
6.426360342e-35
6.015921793e-35
5.63795449e-35
5.289243522e-35
4.966947003e-35
4.668549015e-35
4.391818731e-35
4.134774868e-35
3.895654744e-35
3.672887414e-35
3.465070228e-35
3.270948453e-35
3.089397488e-35
2.919407392e-35
2.760069349e-35
2.610563886e-35
2.470150554e-35
2.338158914e-35
2.213980646e-35
2.097062659e-35
1.98690102e-35
1.883035649e-35
1.785045647e-35
1.692545209e-35
1.605179986e-35
1.522623908e-35
1.444576381e-35
1.370759799e-35
1.300917333e-35
1.234810994e-35
1.172219885e-35
1.112938682e-35
1.056776245e-35
1.003554389e-35
9.531067994e-36
9.052780429e-36
8.599226916e-36
8.169045225e-36
7.76095811e-36
7.373766761e-36
7.00634502e-36
6.657634079e-36
6.326637673e-36
6.012417644e-36
5.714089996e-36
5.43082126e-36
5.161825077e-36
4.906359152e-36
4.663722391e-36
4.433252397e-36
4.214322969e-36
4.006341911e-36
3.808748974e-36
3.621014001e-36
3.442635045e-36
3.273136814e-36
3.112069092e-36
2.95900532e-36
2.81354125e-36
2.675293707e-36
2.543899405e-36
2.419013857e-36
2.300310341e-36
2.187478927e-36
2.080225605e-36
1.978271396e-36
1.881351556e-36
1.789214808e-36
1.701622666e-36
1.618348729e-36
1.539178061e-36
1.463906581e-36
1.392340525e-36
1.324295873e-36
1.259597874e-36
1.198080578e-36
1.139586335e-36
1.083965412e-36
1.031075575e-36
9.80781702e-37
9.329554309e-37
8.874748093e-37
8.442239697e-37
8.03092828e-37
7.639767786e-37
7.267764133e-37
6.913972753e-37
6.57749608e-37
6.257481085e-37
5.953117127e-37
5.663633752e-37
5.388298718e-37
5.126416104e-37
4.877324389e-37
4.640394834e-37
4.415029766e-37
4.200661143e-37
3.996748949e-37
3.802779881e-37
3.618265919e-37
3.442743161e-37
3.275770556e-37
3.116928831e-37
2.965819322e-37
2.822063072e-37
2.685299671e-37
2.555186533e-37
2.431397887e-37
2.313623948e-37
2.201570148e-37
2.094956414e-37
1.993516377e-37
1.89699675e-37
1.805156655e-37
1.717766969e-37
1.634609781e-37
1.555477878e-37
1.480174138e-37
1.408511032e-37
1.340310207e-37
1.275401988e-37
1.213624956e-37
1.154825531e-37
1.098857598e-37
1.045582104e-37
9.94866764e-38
9.465856765e-38
9.006189871e-38
8.56852662e-38
8.151781331e-38
7.754920661e-38
7.376961074e-38
7.016966012e-38
6.67404417e-38
6.347347355e-38
6.036068303e-38
5.73943955e-38
5.456731911e-38
5.187253817e-38
4.930351283e-38
4.685408225e-38
4.451849092e-38
4.229142663e-38
4.016809669e-38
3.814434702e-38
3.621685578e-38
3.438344082e-38
3.264354099e-38
3.099895911e-38
2.945501746e-38
1.779518018e-38
9.018123397e-39
4.556893804e-39
2.298397504e-39
1.156502203e-39
5.803729659e-40
2.904302762e-40
1.449128198e-40
7.208900864e-41
3.575221084e-41
1.767613988e-41
8.711689861e-42
4.279881308e-42
2.095858745e-42
1.023042265e-42
4.97751069e-43
2.413843034e-43
1.166821622e-43
5.621996491e-44
2.700173394e-44
1.292794264e-44
6.169880916e-45
2.93540022e-45
1.392649649e-45
6.586997176e-46
3.106997782e-46
1.461497858e-46
6.85740211e-47
3.209872033e-47
1.499258477e-47
6.988443219e-48
3.254512001e-48
1.513760108e-48
7.036952481e-49
3.280860677e-49
1.532832045e-49
7.190106304e-50
3.404826508e-50
1.633814478e-50
7.942704084e-51
4.035865887e-51
2.084249973e-51
1.140156261e-51
6.686728986e-52
4.168983611e-52
2.612404866e-52
1.288028962e-52
1.480345419e-52
2.915428719e-53
1.051850607e-53
6.072087771e-53
4.069381043e-53
7.547220057e-55
8.953926956e-54
1.142608835e-53
0
0
2.885100278e-53
2.508757673e-53
7.667618083e-55
2.742574796e-54
2.348474335e-53
1.101386172e-53
0
0
0
1.51184098e-54
1.034738989e-55
1.481550107e-55
3.777522386e-54
6.008203798e-56
0
4.068643236e-54
2.583411168e-54
0
0
2.956804044e-53
1.64967796e-53
6.478315132e-54
1.345586006e-55
3.874494687e-54
6.601896108e-54
1.464487651e-53
9.088179392e-54
3.183117609e-54
0
1.780830395e-54
1.675498854e-54
5.22586576e-54
4.730213257e-54
1.805052724e-54
4.148445362e-55
2.95823994e-55
1.026757961e-56
1.902485885e-55
3.48452689e-56
0
0
1.211231012e-57
2.167078714e-55
1.48721705e-56
1.383786283e-54
4.03076262e-55
7.90574056e-55
9.282452034e-55
0
0
0
3.105076271e-55
1.192477408e-56
4.622439773e-55
3.171896632e-55
8.449658221e-57
2.47891141e-55
4.463621073e-55
2.243973187e-55
3.847171634e-55
5.870821634e-56
8.430555486e-56
2.046939266e-55
2.570987517e-55
3.161028893e-56
3.966791475e-55
1.626071766e-55
2.623213751e-55
1.743498129e-55
0
3.507162322e-56
1.787276329e-57
8.398721965e-56
3.797119946e-56
0
8.874264262e-56
3.846156343e-57
1.27942049e-55
1.41277143e-55
0
1.390028387e-55
2.942486408e-55
1.579524832e-55
0
3.523998929e-57
4.589554033e-55
1.53247264e-55
9.547349291e-56
0
0
4.673595665e-55
7.255360361e-55
4.78704777e-55
7.923843653e-55
1.877968095e-55
5.28879523e-55
0
1.217151919e-55
2.592796098e-57
5.339626893e-57
0
3.381170531e-55
5.578552813e-55
1.016788303e-54
1.170935914e-54
3.88327048e-55
8.073923698e-55
1.854635236e-54
0
6.141057273e-55
3.428304457e-56
1.19298309e-55
3.405116352e-55
0
0
0
0
4.983216956e-55
0
1.041080467e-54
1.639803823e-55
5.86484627e-55
8.143644956e-55
1.825000368e-54
1.382118113e-54
4.203950912e-55
9.890333447e-55
1.113404894e-54
1.842966657e-55
1.180100463e-55
1.510730315e-55
5.529698519e-55
1.589313442e-55
6.074476882e-55
3.046024675e-55
1.424008236e-56
1.054634029e-54
1.205153869e-54
1.525397945e-55
1.054029882e-54
2.27405136e-55
5.463179849e-55
0
0
0
6.851458763e-56
0
0
0
2.73340776e-55
1.493157915e-55
2.91192288e-56
7.087917797e-56
8.285761076e-56
1.53186591e-55
8.660914739e-56
0
0
2.379635169e-55
3.136206944e-57
2.088492249e-55
1.769948314e-57
4.341671386e-56
5.417203236e-56
3.51456326e-56
1.970859411e-58
2.286087743e-56
0
7.005575442e-56
2.909220149e-56
8.06823617e-56
0
0
1.081365504e-55
1.024671775e-55
2.97982941e-56
1.117376723e-55
8.509804345e-57
1.716536731e-55
3.444672023e-56
2.46103465e-55
4.062395785e-56
0
0
0
1.235124676e-57
6.49273339e-57
0
0
0
0
3.870145777e-56
0
)
;

boundaryField
{
    inlet
    {
        type            fixedValue;
        value           uniform 0;
    }
    outlet
    {
        type            zeroGradient;
    }
    wall
    {
        type            empty;
    }
}


// ************************************************************************* //
