/*--------------------------------*- C++ -*----------------------------------*\
  =========                 |
  \\      /  F ield         | OpenFOAM: The Open Source CFD Toolbox
   \\    /   O peration     | Website:  https://openfoam.org
    \\  /    A nd           | Version:  7
     \\/     M anipulation  |
\*---------------------------------------------------------------------------*/
FoamFile
{
    version     2.0;
    format      ascii;
    class       volScalarField;
    location    "0.000558243009";
    object      C5H9_0;
}
// * * * * * * * * * * * * * * * * * * * * * * * * * * * * * * * * * * * * * //

dimensions      [0 0 0 0 0 0 0];

internalField   nonuniform List<scalar> 
1500
(
1.005585258e-17
3.914926169e-17
8.052559254e-17
1.202372993e-16
1.493383641e-16
1.667612881e-16
1.756232302e-16
1.795467308e-16
1.810847434e-16
1.816257518e-16
1.817984337e-16
1.818489218e-16
1.818625524e-16
1.818659737e-16
1.818667769e-16
1.818669541e-16
1.81866991e-16
1.818669983e-16
1.818669996e-16
1.818669999e-16
1.818669999e-16
1.818669999e-16
1.818669999e-16
1.818669999e-16
1.818669999e-16
1.818669999e-16
1.818669999e-16
1.818669999e-16
1.818669999e-16
1.818669999e-16
1.818669999e-16
1.818669999e-16
1.818669999e-16
1.818669999e-16
1.818669999e-16
1.818669999e-16
1.818669999e-16
1.818669999e-16
1.818669999e-16
1.818669999e-16
1.818669999e-16
1.818669999e-16
1.818669999e-16
1.818669999e-16
1.818669999e-16
1.818669999e-16
1.818669999e-16
1.818669999e-16
1.818669999e-16
1.818669999e-16
1.818669999e-16
1.818669999e-16
1.818669999e-16
1.818669999e-16
1.818669999e-16
1.818669999e-16
1.818669999e-16
1.818669999e-16
1.818669999e-16
1.818669999e-16
1.818669999e-16
1.818669999e-16
1.818669999e-16
1.818669999e-16
1.818669999e-16
1.818669999e-16
1.818669999e-16
1.818669999e-16
1.818669999e-16
1.818669999e-16
1.818669999e-16
1.818669999e-16
1.818669999e-16
1.818669999e-16
1.818669999e-16
1.818669999e-16
1.818669999e-16
1.818669999e-16
1.818669999e-16
1.818669999e-16
1.818669999e-16
1.818669999e-16
1.818669999e-16
1.818669999e-16
1.818669999e-16
1.818669999e-16
1.818669999e-16
1.818669999e-16
1.818669999e-16
1.818669999e-16
1.818669999e-16
1.818669999e-16
1.818669999e-16
1.818669999e-16
1.818669999e-16
1.818669999e-16
1.818669999e-16
1.818669999e-16
1.818669999e-16
1.818669999e-16
1.818669999e-16
1.818669999e-16
1.818669999e-16
1.818669999e-16
1.818669999e-16
1.818669999e-16
1.818669999e-16
1.818669999e-16
1.818669999e-16
1.818669999e-16
1.818669999e-16
1.818669999e-16
1.818669999e-16
1.818669999e-16
1.818669999e-16
1.818669999e-16
1.818669999e-16
1.818669999e-16
1.818669999e-16
1.818669999e-16
1.818669999e-16
1.818669999e-16
1.818669999e-16
1.818669999e-16
1.818669999e-16
1.818669999e-16
1.818669999e-16
1.818669999e-16
1.818669999e-16
1.818669999e-16
1.818669999e-16
1.818669999e-16
1.818669999e-16
1.818669999e-16
1.818669999e-16
1.818669999e-16
1.818669999e-16
1.818669999e-16
1.818669999e-16
1.818669999e-16
1.818669999e-16
1.818669999e-16
1.818669999e-16
1.818669999e-16
1.818669999e-16
1.818669999e-16
1.818669999e-16
1.818669999e-16
1.818669999e-16
1.818669999e-16
1.818669999e-16
1.818669999e-16
1.818669999e-16
1.818669999e-16
1.818669999e-16
1.818669999e-16
1.818669999e-16
1.818669999e-16
1.818669999e-16
1.818669999e-16
1.818669999e-16
1.818669999e-16
1.818669999e-16
1.818669999e-16
1.818669999e-16
1.818669999e-16
1.818669999e-16
1.818669999e-16
1.818669999e-16
1.818669999e-16
1.818669999e-16
1.818669999e-16
1.818669999e-16
1.818669999e-16
1.818669999e-16
1.818669999e-16
1.818669999e-16
1.818669999e-16
1.818669999e-16
1.818669999e-16
1.818669999e-16
1.818669999e-16
1.818669999e-16
1.818669999e-16
1.818669999e-16
1.818669999e-16
1.818669999e-16
1.818669999e-16
1.818669999e-16
1.818669999e-16
1.818669999e-16
1.818669999e-16
1.818669999e-16
1.818669999e-16
1.818669999e-16
1.818669999e-16
1.818669999e-16
1.818669999e-16
1.818669999e-16
1.818669999e-16
1.818669999e-16
1.818669999e-16
1.818669999e-16
1.818669999e-16
1.818669999e-16
1.818669999e-16
1.818669999e-16
1.818669999e-16
1.818669999e-16
1.818669999e-16
1.818669999e-16
1.818669999e-16
1.818669999e-16
1.818669999e-16
1.818669999e-16
1.818669999e-16
1.818669999e-16
1.818669999e-16
1.818669999e-16
1.818669999e-16
1.818669999e-16
1.818669999e-16
1.818669999e-16
1.818669999e-16
1.818669999e-16
1.818669999e-16
1.818669999e-16
1.818669999e-16
1.818669999e-16
1.818669999e-16
1.818669999e-16
1.818669999e-16
1.818669999e-16
1.818669999e-16
1.818669999e-16
1.81867e-16
1.81867e-16
1.81867e-16
1.818670001e-16
1.818670004e-16
1.818670016e-16
1.818670068e-16
1.818670277e-16
1.818671066e-16
1.818673794e-16
1.818682381e-16
1.818706677e-16
1.818767157e-16
1.81889393e-16
1.819091452e-16
1.81914221e-16
1.819160839e-16
1.819180243e-16
1.819200453e-16
1.819221495e-16
1.819243399e-16
1.819266199e-16
1.819289934e-16
1.819314643e-16
1.819340369e-16
1.819367157e-16
1.819395051e-16
1.819424099e-16
1.819454352e-16
1.819485861e-16
1.819518681e-16
1.819552869e-16
1.819588486e-16
1.819625593e-16
1.819664256e-16
1.819704544e-16
1.819746529e-16
1.819790287e-16
1.819835895e-16
1.819883437e-16
1.819933001e-16
1.819984676e-16
1.820038558e-16
1.820094747e-16
1.820153349e-16
1.820214475e-16
1.820278239e-16
1.820344763e-16
1.820414177e-16
1.820486614e-16
1.820562215e-16
1.82064113e-16
1.820723515e-16
1.820809536e-16
1.820899364e-16
1.820993185e-16
1.821091189e-16
1.821193581e-16
1.821300575e-16
1.821412396e-16
1.821529284e-16
1.82165149e-16
1.821779281e-16
1.821912937e-16
1.822052756e-16
1.822199053e-16
1.82235216e-16
1.822512429e-16
1.822680234e-16
1.82285597e-16
1.823040054e-16
1.823232932e-16
1.823435074e-16
1.823646979e-16
1.823869177e-16
1.824102233e-16
1.824346742e-16
1.824603341e-16
1.824872706e-16
1.825155553e-16
1.825452646e-16
1.825764798e-16
1.826092872e-16
1.82643779e-16
1.826800529e-16
1.827182133e-16
1.827583713e-16
1.828006452e-16
1.82845161e-16
1.828920531e-16
1.829414647e-16
1.829935482e-16
1.830484665e-16
1.831063927e-16
1.831675117e-16
1.832320206e-16
1.833001293e-16
1.833720617e-16
1.834480565e-16
1.835283679e-16
1.836132671e-16
1.837030429e-16
1.837980031e-16
1.838984755e-16
1.840048096e-16
1.84117377e-16
1.84236574e-16
1.84362822e-16
1.844965697e-16
1.846382942e-16
1.847885032e-16
1.849477365e-16
1.851165679e-16
1.852956068e-16
1.854855009e-16
1.856869377e-16
1.85900647e-16
1.86127403e-16
1.863680267e-16
1.866233886e-16
1.868944109e-16
1.871820703e-16
1.874874006e-16
1.878114957e-16
1.881555126e-16
1.885206738e-16
1.889082711e-16
1.893196683e-16
1.897563045e-16
1.902196975e-16
1.907114471e-16
1.912332387e-16
1.917868463e-16
1.92374137e-16
1.929970735e-16
1.936577186e-16
1.943582385e-16
1.951009066e-16
1.958881072e-16
1.967223394e-16
1.976062207e-16
1.985424905e-16
1.995340145e-16
2.005837876e-16
2.01694938e-16
2.028707305e-16
2.041145705e-16
2.054300065e-16
2.068207344e-16
2.082905999e-16
2.09843602e-16
2.114838957e-16
2.132157947e-16
2.15043774e-16
2.169724724e-16
2.190066942e-16
2.211514114e-16
2.234117652e-16
2.257930672e-16
2.283008009e-16
2.309406218e-16
2.337183582e-16
2.366400113e-16
2.397117544e-16
2.429399329e-16
2.463310627e-16
2.498918288e-16
2.536290836e-16
2.575498442e-16
2.616612899e-16
2.659707586e-16
2.704857434e-16
2.752138881e-16
2.801629825e-16
2.853409574e-16
2.907558786e-16
2.964159409e-16
3.023294612e-16
3.085048714e-16
3.149507107e-16
3.216756172e-16
3.286883195e-16
3.359976272e-16
3.436124216e-16
3.51541645e-16
3.59794291e-16
3.683793929e-16
3.773060125e-16
3.865832285e-16
3.962201244e-16
4.062257758e-16
4.166092382e-16
4.273795335e-16
4.385456372e-16
4.501164647e-16
4.621008581e-16
4.74507572e-16
4.873452606e-16
5.006224627e-16
5.143475893e-16
5.285289086e-16
5.431745335e-16
5.582924073e-16
5.73890291e-16
5.8997575e-16
6.065561417e-16
6.236386028e-16
6.412300377e-16
6.593371073e-16
6.779662174e-16
6.971235091e-16
7.168148488e-16
7.370458193e-16
7.578217115e-16
7.79147517e-16
8.01027922e-16
8.23467301e-16
8.464697126e-16
8.700388956e-16
8.941782668e-16
9.188909195e-16
9.441796232e-16
9.700468245e-16
9.964946498e-16
1.023524909e-15
1.0511391e-15
1.079338416e-15
1.108123752e-15
1.137495718e-15
1.167454645e-15
1.198000602e-15
1.229133408e-15
1.260852649e-15
1.293157696e-15
1.326047727e-15
1.359521742e-15
1.393578594e-15
1.428217011e-15
1.463435624e-15
1.499232996e-15
1.535607653e-15
1.57255812e-15
1.610082955e-15
1.648180789e-15
1.686850363e-15
1.726090575e-15
1.765900522e-15
1.806279548e-15
1.847227296e-15
1.888743758e-15
1.930829331e-15
1.973484874e-15
2.016711771e-15
2.060511992e-15
2.104888158e-15
2.149843612e-15
2.19538249e-15
2.241509793e-15
2.288231469e-15
2.335554492e-15
2.383486945e-15
2.432038107e-15
2.481218545e-15
2.531040205e-15
2.581516512e-15
2.632662469e-15
2.68449476e-15
2.737031859e-15
2.79029414e-15
2.844303994e-15
2.899085942e-15
2.954666763e-15
3.011075617e-15
3.068344176e-15
3.126506756e-15
3.185600457e-15
3.245665308e-15
3.306744417e-15
3.368884099e-15
3.432134092e-15
3.496547663e-15
3.562181763e-15
3.629097224e-15
3.697358926e-15
3.767035978e-15
3.838201905e-15
3.910934831e-15
3.985317676e-15
4.061438343e-15
4.139389922e-15
4.219270889e-15
4.301185311e-15
4.385243066e-15
4.471560032e-15
4.560258346e-15
4.651466621e-15
4.745320195e-15
4.841961358e-15
4.941539643e-15
5.044212071e-15
5.150143382e-15
5.259506317e-15
5.37248191e-15
5.489259777e-15
5.610038417e-15
5.735025518e-15
5.86443828e-15
5.998503741e-15
6.137459124e-15
6.281552194e-15
6.431041627e-15
6.586197399e-15
6.747301183e-15
6.914646779e-15
7.088540544e-15
7.269301857e-15
7.457263601e-15
7.652772668e-15
7.856190491e-15
8.067893604e-15
8.288274231e-15
8.517740905e-15
8.756719131e-15
9.005652072e-15
9.265001289e-15
9.535247515e-15
9.816891485e-15
1.011045481e-14
1.041648093e-14
1.073553606e-14
1.106821035e-14
1.141511892e-14
1.177690319e-14
1.215423215e-14
1.254780382e-14
1.295834683e-14
1.338662216e-14
1.3833425e-14
1.429958692e-14
1.478597825e-14
1.529351073e-14
1.582314064e-14
1.637587236e-14
1.695276252e-14
1.755492493e-14
1.818353646e-14
1.88398441e-14
1.952517361e-14
2.024094005e-14
2.098866093e-14
2.176997252e-14
2.258665028e-14
2.344063477e-14
2.433406426e-14
2.526931637e-14
2.624906114e-14
2.727632888e-14
2.835459721e-14
2.948790282e-14
3.068098524e-14
3.193947201e-14
3.327011733e-14
3.468110997e-14
3.618247078e-14
3.778656601e-14
3.95087706e-14
4.136832539e-14
4.338944525e-14
4.56027519e-14
4.804712669e-14
5.077210674e-14
5.3840984e-14
5.733481368e-14
6.13575989e-14
6.604299689e-14
7.156299331e-14
7.813912205e-14
8.605697723e-14
9.5684983e-14
1.074986693e-13
1.221120681e-13
1.403183151e-13
1.631421562e-13
1.919078427e-13
2.283269207e-13
2.746117379e-13
3.336221891e-13
4.090554191e-13
5.056910389e-13
6.297080681e-13
7.890945439e-13
9.941768318e-13
1.258303536e-12
1.598729051e-12
2.037754859e-12
2.60420354e-12
3.335322144e-12
4.279239528e-12
5.4981382e-12
7.072347472e-12
9.105624136e-12
1.173196323e-11
1.51243794e-11
1.9506225e-11
2.516577183e-11
3.24749895e-11
4.191371587e-11
5.410075119e-11
6.983383429e-11
9.014100305e-11
1.163465304e-10
1.501555005e-10
1.937621906e-10
2.499888125e-10
3.22462907e-10
4.158438592e-10
5.361117107e-10
6.909347951e-10
8.901368503e-10
1.146289313e-09
1.475460631e-09
1.898161825e-09
2.44053632e-09
3.1358525e-09
4.026369463e-09
5.165660365e-09
6.621493244e-09
8.479386286e-09
1.08469727e-08
1.385932893e-08
1.768543795e-08
2.253597561e-08
2.86726198e-08
3.64190891e-08
4.617411428e-08
5.842653286e-08
7.377266865e-08
9.293611406e-08
1.167899718e-07
1.463815341e-07
1.829592849e-07
2.280020098e-07
2.832496924e-07
3.507357831e-07
4.328203446e-07
5.322235302e-07
6.520588325e-07
7.958655597e-07
9.676400506e-07
1.171865214e-06
1.413538073e-06
1.698195084e-06
2.031935118e-06
2.421440047e-06
2.873993201e-06
3.39749543e-06
4.000479451e-06
4.692121978e-06
5.482253236e-06
6.381362685e-06
7.400598563e-06
8.551755546e-06
9.846307877e-06
1.129926393e-05
1.291786934e-05
1.473033012e-05
1.674858402e-05
1.898583857e-05
2.135774486e-05
2.3889743e-05
2.653015121e-05
2.917818156e-05
3.166370826e-05
3.374167465e-05
3.512671951e-05
3.556215215e-05
3.490612313e-05
3.32055923e-05
3.071030429e-05
2.773958553e-05
2.479891312e-05
2.20854102e-05
1.969840779e-05
1.758772277e-05
1.571806881e-05
1.394115891e-05
1.217285921e-05
1.043768948e-05
8.714151763e-06
7.031649987e-06
5.456720488e-06
4.062669747e-06
2.907341372e-06
2.008229425e-06
1.345867599e-06
8.843507633e-07
5.71311751e-07
3.677134698e-07
2.363687132e-07
1.523066056e-07
9.863487082e-08
6.430136654e-08
4.208574616e-08
2.757885906e-08
1.816722273e-08
1.20281621e-08
8.00029903e-09
5.343241546e-09
3.580565368e-09
2.40400847e-09
1.615529186e-09
1.089883089e-09
7.43193771e-10
5.089159872e-10
3.48437883e-10
2.395332338e-10
1.652562538e-10
1.143651955e-10
7.935806255e-11
5.519463867e-11
3.84760681e-11
2.686742562e-11
1.879345281e-11
1.316663347e-11
9.238140881e-12
6.490825557e-12
4.566605951e-12
3.216965798e-12
2.269069394e-12
1.602487343e-12
1.133161748e-12
8.0232907e-13
5.688493072e-13
4.038821737e-13
2.871847757e-13
2.045322166e-13
1.459175502e-13
1.042936959e-13
7.469292154e-14
5.36097968e-14
3.856827613e-14
2.781763849e-14
2.011871551e-14
1.459345582e-14
1.061896545e-14
7.752810231e-15
5.680312135e-15
4.177332111e-15
3.083966238e-15
2.285938502e-15
1.701425854e-15
1.271720346e-15
9.546037734e-16
7.196414083e-16
5.448347156e-16
4.142373138e-16
3.162543888e-16
2.424275867e-16
1.865651837e-16
1.441181551e-16
1.117316328e-16
8.692166913e-17
6.784168467e-17
5.311324136e-17
4.170304962e-17
3.283328778e-17
2.591598649e-17
2.05048469e-17
1.625972703e-17
1.292036324e-17
1.028684716e-17
8.205061962e-18
6.55577324e-18
5.246423406e-18
4.204934066e-18
3.375005854e-18
2.712539623e-18
2.182900807e-18
1.758820392e-18
1.418778512e-18
1.145755359e-18
9.262627593e-19
7.495909907e-19
6.072212734e-19
4.923662211e-19
3.996094409e-19
3.246222018e-19
2.639401834e-19
2.147871863e-19
1.749356512e-19
1.425960912e-19
1.163292933e-19
9.497648467e-20
7.760370113e-20
6.345740697e-20
5.192904022e-20
4.252665221e-20
3.485219361e-20
2.85833012e-20
2.34586772e-20
1.926633965e-20
1.58341703e-20
1.302230306e-20
1.071698874e-20
8.825644841e-21
7.27285816e-21
5.997153621e-21
4.948380376e-21
4.085595369e-21
3.375348284e-21
2.790290594e-21
2.308046586e-21
1.910296273e-21
1.582029857e-21
1.310941198e-21
1.086933977e-21
9.017193449e-22
7.484878441e-22
6.216417161e-22
5.165763173e-22
4.295015109e-22
3.572956223e-22
2.973859398e-22
2.476508687e-22
2.063397623e-22
1.720071926e-22
1.434590242e-22
1.197081447e-22
9.9938097e-23
8.347318661e-23
6.975389374e-23
5.831663748e-23
4.877711108e-23
4.081654988e-23
3.417040907e-23
2.861902277e-23
2.397989327e-23
2.010132209e-23
1.685714652e-23
1.414238709e-23
1.186964646e-23
9.966128161e-24
8.371167314e-24
7.034184122e-24
5.912986943e-24
4.972364416e-24
4.182916812e-24
3.520085435e-24
2.963346101e-24
2.495538609e-24
2.102308997e-24
1.771645366e-24
1.4934914e-24
1.259424409e-24
1.062386992e-24
8.964632879e-25
7.566923182e-25
6.389121913e-25
5.396300166e-25
4.559132293e-25
3.852987642e-25
3.257171125e-25
2.754287954e-25
2.329712019e-25
1.9711408e-25
1.668222586e-25
1.412244115e-25
1.195868742e-25
1.01291687e-25
8.581817554e-26
7.272749235e-26
6.164963877e-26
5.227256513e-26
4.433301304e-26
3.760881845e-26
3.191244033e-26
2.708551777e-26
2.299429054e-26
1.952574478e-26
1.6584368e-26
1.408941609e-26
1.197261079e-26
1.017619934e-26
8.651318609e-27
7.356615734e-27
6.257084504e-27
5.323083557e-27
4.529507701e-27
3.855088278e-27
3.281802303e-27
2.794373338e-27
2.379849721e-27
2.027248086e-27
1.727251963e-27
1.471956891e-27
1.254654816e-27
1.069651643e-27
9.121128434e-28
7.77932733e-28
6.636237887e-28
5.662228954e-28
4.832119195e-28
4.124504007e-28
3.521184997e-28
3.006686281e-28
2.567844284e-28
2.193459796e-28
1.874002763e-28
1.601361761e-28
1.368631345e-28
1.169931496e-28
1.000254296e-28
8.553336922e-29
7.315348405e-29
6.257600777e-29
5.353689942e-29
4.581104825e-29
3.920649548e-29
3.355951945e-29
2.873045453e-29
2.460013329e-29
2.106685841e-29
1.8043825e-29
1.545692571e-29
1.324288157e-29
1.134764975e-29
9.725067008e-30
8.335693674e-30
7.145828341e-30
6.126667874e-30
5.253591166e-30
4.505548293e-30
3.864539447e-30
3.315170378e-30
2.844273029e-30
2.440581741e-30
2.094456846e-30
1.797648654e-30
1.543095911e-30
1.324753643e-30
1.137446089e-30
9.76741042e-31
8.388424525e-31
7.20498639e-31
6.189238132e-31
5.317309816e-31
4.568745637e-31
3.926013118e-31
3.374083237e-31
2.900071187e-31
2.492928951e-31
2.143182188e-31
1.842704995e-31
1.584527083e-31
1.362668652e-31
1.171998988e-31
1.008115339e-31
8.672391581e-32
7.461272071e-32
6.419953753e-32
5.524533959e-32
4.754488866e-32
4.092193781e-32
3.522511843e-32
3.032441348e-32
2.610813284e-32
2.24803191e-32
1.935852218e-32
1.667189003e-32
1.435953051e-32
1.236910549e-32
1.065562437e-32
9.180408424e-33
7.910201697e-33
6.816407755e-33
5.874434231e-33
5.063129981e-33
4.364301674e-33
3.762298561e-33
3.243655776e-33
2.796787867e-33
2.411725478e-33
2.079889056e-33
1.793894376e-33
1.547385382e-33
1.334890493e-33
1.15169907e-33
9.937552031e-34
8.575663748e-34
7.401249197e-34
6.388404697e-34
5.51481848e-34
4.761270839e-34
4.11120409e-34
3.550352562e-34
3.0664242e-34
2.648826563e-34
2.288430996e-34
1.977369644e-34
1.708860707e-34
1.477058008e-34
1.27692147e-34
1.104105579e-34
9.548633412e-35
8.259635636e-35
7.146196065e-35
6.184280109e-35
5.353156281e-35
4.634940685e-35
4.014204535e-35
3.477635952e-35
3.013748504e-35
2.61263001e-35
2.265726029e-35
1.965653216e-35
1.706038433e-35
1.481380026e-35
1.28692822e-35
1.118581982e-35
9.728000812e-36
8.465243774e-36
7.371136613e-36
6.422865837e-36
5.600724238e-36
4.887686149e-36
4.269040984e-36
3.732077027e-36
3.265808561e-36
2.860740387e-36
2.508664571e-36
2.202485025e-36
1.936066066e-36
1.704101691e-36
1.502002712e-36
1.3257993e-36
1.17205684e-36
1.037803265e-36
9.204662924e-37
8.178192211e-37
7.27934111e-37
6.491413348e-37
5.799946342e-37
5.192409285e-37
4.65794226e-37
4.187130805e-37
3.771811059e-37
3.404901363e-37
3.080256681e-37
2.792542748e-37
2.537127266e-37
2.309985805e-37
2.107620449e-37
1.92698941e-37
1.765446157e-37
1.620686752e-37
1.490704289e-37
1.373749455e-37
1.268296407e-37
1.173013228e-37
1.086736352e-37
1.008448412e-37
9.37259065e-38
8.723883655e-38
8.131523775e-38
7.589506891e-38
7.092555993e-38
6.636027402e-38
6.215829403e-38
5.82835167e-38
5.470404029e-38
5.139163269e-38
4.832126956e-38
4.547073323e-38
4.282026405e-38
4.035225674e-38
3.805099686e-38
3.590243106e-38
3.389396687e-38
3.201429876e-38
3.025325578e-38
2.860166908e-38
2.705125592e-38
2.559451861e-38
2.42246558e-38
2.293548495e-38
2.172137454e-38
2.057718427e-38
1.949821282e-38
1.848015184e-38
1.751904536e-38
1.661125413e-38
1.575342411e-38
1.494245861e-38
1.417549367e-38
1.344987607e-38
1.27631441e-38
1.211301021e-38
1.149734561e-38
1.09141665e-38
1.036162193e-38
9.837982643e-39
9.341631316e-39
8.871053551e-39
8.424829997e-39
8.001628975e-39
7.600200076e-39
7.21936812e-39
6.858027767e-39
6.515138659e-39
6.189720874e-39
5.880850884e-39
5.587657775e-39
5.3093198e-39
5.045061145e-39
4.794149131e-39
4.555891471e-39
4.329633713e-39
4.114757031e-39
3.910676023e-39
3.716836773e-39
3.532714949e-39
3.357814146e-39
3.191664239e-39
3.033819904e-39
2.883859187e-39
2.741382228e-39
2.606010027e-39
2.477383298e-39
2.355161375e-39
2.239021197e-39
2.128656363e-39
2.023776238e-39
1.92410509e-39
1.82938134e-39
1.739356765e-39
1.653795816e-39
1.572474934e-39
1.495181929e-39
1.421715385e-39
1.351884112e-39
1.285506604e-39
1.22241052e-39
1.16243224e-39
1.105416379e-39
1.051215407e-39
9.996892198e-40
9.507047544e-40
9.041356443e-40
8.598618656e-40
8.177694137e-40
7.777500058e-40
7.397007838e-40
7.035240326e-40
6.691269305e-40
6.364213003e-40
6.053233606e-40
5.75753519e-40
5.476361553e-40
5.20899418e-40
4.954750366e-40
4.712981389e-40
4.483070855e-40
4.264433045e-40
4.056511297e-40
3.858776701e-40
3.670726552e-40
3.491883118e-40
3.321792354e-40
3.160022736e-40
3.006164184e-40
2.859826823e-40
2.720640106e-40
2.588251876e-40
2.46232734e-40
2.342548234e-40
2.228612059e-40
2.120231232e-40
2.017132339e-40
1.919055413e-40
1.825753334e-40
1.736991123e-40
1.65254538e-40
1.572203604e-40
1.495763799e-40
1.42303383e-40
1.353830999e-40
1.287981535e-40
1.225320156e-40
1.165689678e-40
1.108940543e-40
1.054930512e-40
1.003524226e-40
9.54592917e-41
9.080140714e-41
8.636710935e-41
8.214530227e-41
7.812542879e-41
7.42974409e-41
7.065177623e-41
6.717933613e-41
6.387146624e-41
6.071994128e-41
5.77169473e-41
5.485507607e-41
5.21273227e-41
4.95270925e-41
4.704822659e-41
4.468504273e-41
4.243241844e-41
4.028592182e-41
3.82420239e-41
3.629844235e-41
3.44546876e-41
3.271292148e-41
3.107933881e-41
1.876618767e-41
9.468046263e-42
4.769287424e-42
2.398843406e-42
1.203917311e-42
6.027007746e-43
3.009162115e-43
1.498230902e-43
7.438133741e-44
3.681888789e-44
1.81706966e-44
8.940105124e-45
4.384918806e-45
2.143950321e-45
1.044934286e-45
5.076616107e-46
2.45823677e-46
1.186629451e-46
5.709727759e-47
2.738859549e-47
1.309333644e-47
6.241177647e-48
2.952858169e-48
1.408365713e-48
6.604101561e-49
3.120414137e-49
1.472202895e-49
6.902734194e-50
3.254478958e-50
1.588787032e-50
6.516158836e-51
4.228201938e-51
1.713540408e-51
1.323531553e-51
2.156712378e-51
1.864496911e-51
3.060825856e-52
3.195666855e-52
4.030634358e-52
2.969800978e-53
9.031403224e-52
1.060094195e-51
6.333322909e-52
1.17653677e-51
1.907714218e-51
0
0
3.299771012e-51
0
1.373621996e-51
0
1.075105355e-51
4.974616617e-53
4.63346693e-52
2.215435209e-51
1.505636364e-51
1.252770864e-51
4.237956333e-51
4.575105899e-51
1.559961839e-52
6.959392769e-52
3.757052251e-53
1.17164465e-51
4.091698034e-52
4.632812506e-52
1.323944958e-53
3.310131877e-52
2.672231636e-53
1.146489932e-53
0
0
0
1.263301805e-51
5.972884948e-52
1.605704439e-51
0
1.776024075e-51
7.620973339e-52
1.122693017e-51
4.551844981e-53
8.60541924e-52
0
0
1.842257657e-51
9.300893315e-52
1.155197709e-52
6.099539703e-54
0
0
0
4.720336982e-52
5.443811054e-54
6.22912417e-53
7.616166516e-56
5.473437903e-53
7.027508423e-54
0
9.285342749e-54
0
4.949628369e-53
5.473236666e-55
1.329539111e-53
4.59838729e-53
2.807209752e-54
5.804571294e-54
6.534965311e-54
1.250009093e-53
1.062909423e-53
7.481108925e-53
7.853622915e-55
2.694056908e-53
2.538729487e-53
5.58869468e-55
2.659749829e-53
1.590719784e-55
5.413074698e-55
6.139267088e-54
5.801043159e-55
1.799841175e-53
8.376557791e-54
6.0341364e-54
5.250411995e-54
2.740202412e-54
0
0
1.497898043e-55
0
8.100171614e-54
4.292079763e-55
0
3.219949718e-55
2.734093191e-54
2.108949966e-53
5.756249832e-55
3.43166163e-53
2.382119304e-53
3.639276365e-54
1.449037779e-53
7.884441715e-53
8.629144911e-54
1.340042911e-53
1.153886479e-54
2.135212445e-53
1.440953377e-53
3.494256705e-53
1.509564269e-53
0
1.046621656e-52
3.433758868e-53
3.795375628e-53
3.785036238e-53
0
0
3.313575081e-54
3.170228488e-54
2.690075637e-53
0
5.321564517e-53
7.78738384e-53
5.110634303e-53
8.307164167e-53
1.766832239e-53
8.11266616e-53
1.072191582e-52
3.226317953e-53
1.907981242e-53
4.952927369e-55
1.264716953e-53
0
8.189928654e-53
7.52921176e-54
2.982327975e-53
0
1.31362177e-54
0
1.570492557e-53
6.0512524e-53
4.19114629e-53
6.512008822e-53
6.364397698e-53
7.088568585e-53
6.573439147e-53
7.139488023e-53
4.260379236e-53
1.166792419e-52
3.820814156e-56
2.566632721e-53
3.297156249e-56
3.870641609e-53
0
6.018731094e-53
1.044324436e-52
4.917939796e-54
7.268306383e-53
5.453703738e-53
2.955834523e-53
2.245169438e-53
3.143239422e-53
4.869495609e-53
1.083057864e-53
0
1.167268247e-53
2.476621609e-53
4.561696738e-54
5.496389444e-54
1.099330038e-53
0
3.450160225e-53
1.237142207e-53
0
1.881965835e-53
3.729367138e-53
0
0
0
5.331077624e-53
2.529261009e-55
1.933711804e-53
4.303881076e-57
4.724339152e-56
1.178662768e-53
8.250433669e-54
8.373030362e-56
5.12208689e-54
2.063130076e-54
1.599636117e-54
6.26970556e-54
6.430812048e-54
9.324451159e-54
2.345375082e-54
0
0
3.07020855e-55
1.52321363e-53
0
1.398562194e-53
1.517658371e-53
1.324136204e-54
0
0
9.35199912e-54
8.349764973e-56
6.084106841e-55
0
0
0
5.978424061e-54
1.626683178e-53
8.9732864e-54
0
)
;

boundaryField
{
    inlet
    {
        type            fixedValue;
        value           uniform 0;
    }
    outlet
    {
        type            zeroGradient;
    }
    wall
    {
        type            empty;
    }
}


// ************************************************************************* //
