/*--------------------------------*- C++ -*----------------------------------*\
  =========                 |
  \\      /  F ield         | OpenFOAM: The Open Source CFD Toolbox
   \\    /   O peration     | Website:  https://openfoam.org
    \\  /    A nd           | Version:  7
     \\/     M anipulation  |
\*---------------------------------------------------------------------------*/
FoamFile
{
    version     2.0;
    format      ascii;
    class       volScalarField;
    location    "0.000558243009";
    object      C5H9;
}
// * * * * * * * * * * * * * * * * * * * * * * * * * * * * * * * * * * * * * //

dimensions      [0 0 0 0 0 0 0];

internalField   nonuniform List<scalar> 
1500
(
1.004870171e-17
3.912825588e-17
8.049518296e-17
1.202076681e-16
1.493162948e-16
1.667478696e-16
1.756163143e-16
1.795436352e-16
1.810835184e-16
1.816253172e-16
1.817982939e-16
1.818488806e-16
1.818625412e-16
1.818659709e-16
1.818667762e-16
1.818669539e-16
1.81866991e-16
1.818669983e-16
1.818669996e-16
1.818669999e-16
1.818669999e-16
1.818669999e-16
1.818669999e-16
1.818669999e-16
1.818669999e-16
1.818669999e-16
1.818669999e-16
1.818669999e-16
1.818669999e-16
1.818669999e-16
1.818669999e-16
1.818669999e-16
1.818669999e-16
1.818669999e-16
1.818669999e-16
1.818669999e-16
1.818669999e-16
1.818669999e-16
1.818669999e-16
1.818669999e-16
1.818669999e-16
1.818669999e-16
1.818669999e-16
1.818669999e-16
1.818669999e-16
1.818669999e-16
1.818669999e-16
1.818669999e-16
1.818669999e-16
1.818669999e-16
1.818669999e-16
1.818669999e-16
1.818669999e-16
1.818669999e-16
1.818669999e-16
1.818669999e-16
1.818669999e-16
1.818669999e-16
1.818669999e-16
1.818669999e-16
1.818669999e-16
1.818669999e-16
1.818669999e-16
1.818669999e-16
1.818669999e-16
1.818669999e-16
1.818669999e-16
1.818669999e-16
1.818669999e-16
1.818669999e-16
1.818669999e-16
1.818669999e-16
1.818669999e-16
1.818669999e-16
1.818669999e-16
1.818669999e-16
1.818669999e-16
1.818669999e-16
1.818669999e-16
1.818669999e-16
1.818669999e-16
1.818669999e-16
1.818669999e-16
1.818669999e-16
1.818669999e-16
1.818669999e-16
1.818669999e-16
1.818669999e-16
1.818669999e-16
1.818669999e-16
1.818669999e-16
1.818669999e-16
1.818669999e-16
1.818669999e-16
1.818669999e-16
1.818669999e-16
1.818669999e-16
1.818669999e-16
1.818669999e-16
1.818669999e-16
1.818669999e-16
1.818669999e-16
1.818669999e-16
1.818669999e-16
1.818669999e-16
1.818669999e-16
1.818669999e-16
1.818669999e-16
1.818669999e-16
1.818669999e-16
1.818669999e-16
1.818669999e-16
1.818669999e-16
1.818669999e-16
1.818669999e-16
1.818669999e-16
1.818669999e-16
1.818669999e-16
1.818669999e-16
1.818669999e-16
1.818669999e-16
1.818669999e-16
1.818669999e-16
1.818669999e-16
1.818669999e-16
1.818669999e-16
1.818669999e-16
1.818669999e-16
1.818669999e-16
1.818669999e-16
1.818669999e-16
1.818669999e-16
1.818669999e-16
1.818669999e-16
1.818669999e-16
1.818669999e-16
1.818669999e-16
1.818669999e-16
1.818669999e-16
1.818669999e-16
1.818669999e-16
1.818669999e-16
1.818669999e-16
1.818669999e-16
1.818669999e-16
1.818669999e-16
1.818669999e-16
1.818669999e-16
1.818669999e-16
1.818669999e-16
1.818669999e-16
1.818669999e-16
1.818669999e-16
1.818669999e-16
1.818669999e-16
1.818669999e-16
1.818669999e-16
1.818669999e-16
1.818669999e-16
1.818669999e-16
1.818669999e-16
1.818669999e-16
1.818669999e-16
1.818669999e-16
1.818669999e-16
1.818669999e-16
1.818669999e-16
1.818669999e-16
1.818669999e-16
1.818669999e-16
1.818669999e-16
1.818669999e-16
1.818669999e-16
1.818669999e-16
1.818669999e-16
1.818669999e-16
1.818669999e-16
1.818669999e-16
1.818669999e-16
1.818669999e-16
1.818669999e-16
1.818669999e-16
1.818669999e-16
1.818669999e-16
1.818669999e-16
1.818669999e-16
1.818669999e-16
1.818669999e-16
1.818669999e-16
1.818669999e-16
1.818669999e-16
1.818669999e-16
1.818669999e-16
1.818669999e-16
1.818669999e-16
1.818669999e-16
1.818669999e-16
1.818669999e-16
1.818669999e-16
1.818669999e-16
1.818669999e-16
1.818669999e-16
1.818669999e-16
1.818669999e-16
1.818669999e-16
1.818669999e-16
1.818669999e-16
1.818669999e-16
1.818669999e-16
1.818669999e-16
1.818669999e-16
1.818669999e-16
1.818669999e-16
1.818669999e-16
1.818669999e-16
1.818669999e-16
1.818669999e-16
1.818669999e-16
1.818669999e-16
1.818669999e-16
1.818669999e-16
1.818669999e-16
1.818669999e-16
1.818669999e-16
1.818669999e-16
1.818669999e-16
1.818669999e-16
1.818669999e-16
1.818669999e-16
1.818669999e-16
1.818669999e-16
1.818669999e-16
1.818669999e-16
1.818669999e-16
1.818669999e-16
1.81867e-16
1.81867e-16
1.81867e-16
1.818670001e-16
1.818670004e-16
1.818670016e-16
1.818670067e-16
1.818670277e-16
1.818671064e-16
1.818673788e-16
1.81868236e-16
1.818706613e-16
1.81876698e-16
1.818893512e-16
1.819090652e-16
1.819141305e-16
1.819159907e-16
1.819179273e-16
1.819199441e-16
1.819220441e-16
1.819242302e-16
1.819265057e-16
1.819288746e-16
1.819313407e-16
1.819339083e-16
1.819365817e-16
1.819393656e-16
1.819422647e-16
1.81945284e-16
1.819484287e-16
1.819517042e-16
1.819551163e-16
1.819586709e-16
1.819623742e-16
1.819662328e-16
1.819702536e-16
1.819744438e-16
1.819788107e-16
1.819833624e-16
1.819881072e-16
1.819930535e-16
1.819982106e-16
1.82003588e-16
1.820091956e-16
1.82015044e-16
1.820211441e-16
1.820275076e-16
1.820341465e-16
1.820410737e-16
1.820483026e-16
1.820558473e-16
1.820637226e-16
1.820719442e-16
1.820805285e-16
1.820894929e-16
1.820988555e-16
1.821086356e-16
1.821188536e-16
1.821295306e-16
1.821406894e-16
1.821523537e-16
1.821645486e-16
1.821773007e-16
1.821906381e-16
1.822045904e-16
1.822191889e-16
1.82234467e-16
1.822504596e-16
1.82267204e-16
1.822847397e-16
1.823031083e-16
1.823223542e-16
1.823425243e-16
1.823636685e-16
1.823858395e-16
1.824090936e-16
1.824334904e-16
1.824590933e-16
1.824859695e-16
1.825141907e-16
1.825438331e-16
1.825749776e-16
1.826077105e-16
1.826421234e-16
1.826783141e-16
1.827163865e-16
1.827564515e-16
1.827986269e-16
1.828430386e-16
1.828898204e-16
1.829391152e-16
1.829910751e-16
1.830458623e-16
1.831036497e-16
1.831646215e-16
1.832289742e-16
1.832969172e-16
1.833686738e-16
1.83444482e-16
1.835245953e-16
1.836092841e-16
1.836988364e-16
1.837935591e-16
1.838937793e-16
1.839998452e-16
1.841121276e-16
1.842310216e-16
1.843569474e-16
1.844903524e-16
1.846317126e-16
1.847815342e-16
1.849403554e-16
1.851087484e-16
1.852873211e-16
1.854767194e-16
1.856776288e-16
1.858907772e-16
1.861169366e-16
1.863569261e-16
1.866116135e-16
1.868819187e-16
1.871688158e-16
1.874733359e-16
1.877965701e-16
1.881396722e-16
1.885038616e-16
1.888904269e-16
1.893007282e-16
1.897362011e-16
1.901983595e-16
1.906887992e-16
1.912092014e-16
1.917613358e-16
1.923470648e-16
1.929683465e-16
1.936272386e-16
1.943259022e-16
1.950666054e-16
1.958517268e-16
1.966837599e-16
1.975653159e-16
1.984991283e-16
1.994880561e-16
2.005350878e-16
2.016433446e-16
2.028160844e-16
2.040567051e-16
2.053687479e-16
2.067559008e-16
2.082220018e-16
2.097710416e-16
2.11407167e-16
2.131346832e-16
2.149580567e-16
2.168819171e-16
2.189110599e-16
2.210504479e-16
2.23305213e-16
2.256806575e-16
2.28182255e-16
2.308156515e-16
2.335866656e-16
2.365012884e-16
2.395656836e-16
2.427861865e-16
2.46169303e-16
2.497217082e-16
2.534502444e-16
2.573619189e-16
2.61463901e-16
2.65763519e-16
2.702682562e-16
2.749857468e-16
2.799237714e-16
2.850902513e-16
2.904932435e-16
2.961409339e-16
3.020416309e-16
3.082037584e-16
3.146358474e-16
3.213465287e-16
3.283445236e-16
3.35638635e-16
3.432377376e-16
3.511507682e-16
3.593867147e-16
3.679546057e-16
3.768634985e-16
3.861224682e-16
3.957405948e-16
4.057269517e-16
4.160905921e-16
4.268405368e-16
4.379857606e-16
4.49535179e-16
4.614976348e-16
4.738818843e-16
4.866965836e-16
4.999502749e-16
5.136513724e-16
5.278081494e-16
5.424287236e-16
5.575210445e-16
5.730928799e-16
5.891518029e-16
6.057051789e-16
6.227601539e-16
6.403236422e-16
6.584023149e-16
6.770025893e-16
6.961306184e-16
7.157922811e-16
7.359931734e-16
7.567386001e-16
7.780335673e-16
7.998827759e-16
8.222906158e-16
8.452611616e-16
8.687981684e-16
8.929050697e-16
9.175849755e-16
9.428406725e-16
9.686746249e-16
9.950889765e-16
1.022085555e-15
1.049665875e-15
1.077831148e-15
1.106582286e-15
1.135919916e-15
1.165844386e-15
1.196355781e-15
1.227453936e-15
1.259138453e-15
1.291408717e-15
1.324263918e-15
1.357703072e-15
1.391725043e-15
1.426328569e-15
1.461512292e-15
1.497274781e-15
1.533614571e-15
1.570530193e-15
1.608020207e-15
1.646083246e-15
1.684718052e-15
1.723923521e-15
1.763698745e-15
1.804043061e-15
1.844956104e-15
1.886437853e-15
1.928488691e-15
1.97110946e-15
2.014301524e-15
2.058066827e-15
2.102407965e-15
2.147328248e-15
2.192831777e-15
2.238923517e-15
2.285609372e-15
2.332896268e-15
2.380792237e-15
2.4293065e-15
2.478449563e-15
2.528233307e-15
2.578671084e-15
2.629777819e-15
2.681570113e-15
2.73406635e-15
2.787286809e-15
2.841253777e-15
2.895991667e-15
2.951527143e-15
3.00788924e-15
3.0651095e-15
3.123222101e-15
3.182263996e-15
3.24227506e-15
3.303298234e-15
3.365379669e-15
3.428568914e-15
3.492919043e-15
3.558486811e-15
3.625332841e-15
3.693521791e-15
3.76312254e-15
3.834208369e-15
3.90685715e-15
3.981151536e-15
4.057179154e-15
4.135032805e-15
4.214810662e-15
4.296616481e-15
4.380559809e-15
4.466756191e-15
4.555327409e-15
4.646401714e-15
4.740114059e-15
4.836606347e-15
4.936027698e-15
5.038534703e-15
5.144291663e-15
5.253470864e-15
5.366252869e-15
5.482826805e-15
5.603390664e-15
5.728151612e-15
5.857326303e-15
5.991141219e-15
6.129833001e-15
6.273648816e-15
6.422846721e-15
6.57769605e-15
6.738477817e-15
6.905485134e-15
7.079023653e-15
7.259412021e-15
7.446982364e-15
7.642080791e-15
7.845067925e-15
8.05631946e-15
8.276226754e-15
8.50519744e-15
8.743656092e-15
8.992044906e-15
9.250824441e-15
9.520474393e-15
9.801494416e-15
1.0094405e-14
1.039974842e-14
1.071808969e-14
1.105001768e-14
1.139614622e-14
1.175711535e-14
1.213359263e-14
1.25262746e-14
1.293588834e-14
1.336319319e-14
1.380898266e-14
1.427408653e-14
1.475937326e-14
1.526575264e-14
1.579417887e-14
1.634565417e-14
1.692123285e-14
1.75220263e-14
1.814920878e-14
1.880402453e-14
1.948779633e-14
2.020193605e-14
2.094795773e-14
2.172749383e-14
2.254231568e-14
2.339435918e-14
2.428575741e-14
2.521888212e-14
2.619639661e-14
2.722132339e-14
2.829713096e-14
2.942784521e-14
3.061819275e-14
3.187378551e-14
3.320135867e-14
3.460907763e-14
3.61069343e-14
3.770725892e-14
3.94253813e-14
4.12804855e-14
4.329671472e-14
4.550459985e-14
4.794290689e-14
5.066102616e-14
5.372206243e-14
5.7206832e-14
6.121903268e-14
6.589193134e-14
7.139701414e-14
7.795517569e-14
8.585119173e-14
9.545243856e-14
1.072331047e-13
1.218055043e-13
1.39960575e-13
1.62720249e-13
1.914051777e-13
2.277223028e-13
2.738780847e-13
3.327248931e-13
4.07950259e-13
5.043215155e-13
6.2800201e-13
7.869597851e-13
9.914957107e-13
1.2549259e-12
1.594463363e-12
2.03235691e-12
2.597362123e-12
3.326640897e-12
4.268213934e-12
5.484126493e-12
7.054533864e-12
9.082972404e-12
1.17031582e-11
1.50877533e-11
1.945966483e-11
2.510660325e-11
3.239983125e-11
4.181829794e-11
5.3979688e-11
6.968034261e-11
8.994655212e-11
1.161004095e-10
1.498442863e-10
1.933690941e-10
2.494928821e-10
3.218380615e-10
4.150577228e-10
5.351242203e-10
6.896965515e-10
8.885871895e-10
1.144354084e-09
1.473049686e-09
1.895166248e-09
2.436825495e-09
3.131271154e-09
4.020734966e-09
5.158760697e-09
6.613086285e-09
8.469201376e-09
1.083471584e-08
1.384469357e-08
1.766812408e-08
2.251572067e-08
2.86492465e-08
3.639257625e-08
4.614469905e-08
5.839485466e-08
7.373996757e-08
9.290449939e-08
1.167627793e-07
1.463637933e-07
1.82958322e-07
2.280282112e-07
2.833174612e-07
3.508647155e-07
4.330366581e-07
5.325617702e-07
6.525638786e-07
7.965949472e-07
9.686666069e-07
1.173279999e-06
1.415453597e-06
1.700748766e-06
2.035292954e-06
2.42580048e-06
2.87959118e-06
3.404606786e-06
4.009425637e-06
4.703275303e-06
5.49604244e-06
6.398277565e-06
7.421189555e-06
8.576621207e-06
9.876444098e-06
1.13352102e-05
1.296249025e-05
1.47825498e-05
1.680650093e-05
1.904301438e-05
2.142445582e-05
2.39632935e-05
2.660680016e-05
2.925291994e-05
3.172998737e-05
3.379171101e-05
3.515189212e-05
3.55529084e-05
3.485228307e-05
3.309739776e-05
3.054333042e-05
2.751118295e-05
2.452453279e-05
2.178483029e-05
1.939483469e-05
1.730566033e-05
1.54649576e-05
1.371237555e-05
1.196788776e-05
1.02366876e-05
8.530882789e-06
6.866774349e-06
5.314072922e-06
3.946190748e-06
2.82069473e-06
1.951361781e-06
1.309881353e-06
8.659319778e-07
5.635791172e-07
3.652468944e-07
2.361158359e-07
1.526237401e-07
9.879731387e-08
6.416138127e-08
4.15354789e-08
2.680806808e-08
1.732571504e-08
1.121345248e-08
7.267958338e-09
4.716609679e-09
3.062905706e-09
1.987857539e-09
1.286539913e-09
8.323190456e-10
5.456815305e-10
3.590200559e-10
2.35046949e-10
1.544430343e-10
1.018861985e-10
6.749571073e-11
4.490676394e-11
3.001109109e-11
2.016561033e-11
1.361081584e-11
9.235340316e-12
6.301359887e-12
4.324471023e-12
2.985618565e-12
2.073951014e-12
1.449628973e-12
1.019553709e-12
7.214868336e-13
5.136335282e-13
3.677913385e-13
2.648310023e-13
1.917061734e-13
1.394678985e-13
1.019411896e-13
7.483917328e-14
5.516744757e-14
4.0821561e-14
3.031356612e-14
2.258521776e-14
1.687961352e-14
1.265246066e-14
9.510359837e-15
7.167615518e-15
5.415827096e-15
4.102350999e-15
3.114957957e-15
2.370843336e-15
1.808714539e-15
1.383066177e-15
1.06001938e-15
8.142852655e-16
6.269403444e-16
4.837910209e-16
3.741673276e-16
2.900306114e-16
2.253116664e-16
1.754185628e-16
1.368698041e-16
1.070202938e-16
8.385620121e-17
6.584109122e-17
5.180028212e-17
4.083376505e-17
3.225050607e-17
2.551878591e-17
2.022859048e-17
1.606307292e-17
1.277685686e-17
1.017950811e-17
8.122918484e-18
6.491656071e-18
5.195569309e-18
4.164106623e-18
3.341944531e-18
2.685615714e-18
2.160902831e-18
1.740819925e-18
1.404045656e-18
1.133704687e-18
9.164179012e-19
7.415606496e-19
6.006822887e-19
4.870510625e-19
3.952965715e-19
3.211283821e-19
2.611141597e-19
2.125044268e-19
1.730939114e-19
1.411116662e-19
1.151338484e-19
9.401438192e-20
7.682975328e-20
6.283499787e-20
5.142855989e-20
4.212419967e-20
3.452850668e-20
2.832287714e-20
2.324905305e-20
1.909750536e-20
1.569809163e-20
1.291253494e-20
1.062836258e-20
8.754016406e-21
7.214904454e-21
5.95020972e-21
4.910308417e-21
4.054679535e-21
3.350210678e-21
2.769823914e-21
2.291360256e-21
1.896673369e-21
1.570892667e-21
1.301823673e-21
1.079459716e-21
8.955839688e-22
7.434448982e-22
6.174913776e-22
5.131563474e-22
4.266799989e-22
3.549651616e-22
2.954589487e-22
2.460558265e-22
2.050181789e-22
1.709111646e-22
1.425492631e-22
1.189523815e-22
9.930979223e-23
8.295048336e-23
6.931876831e-23
5.795420855e-23
4.847507717e-23
4.056473052e-23
3.396037002e-23
2.84437694e-23
2.383361927e-23
1.997920333e-23
1.675517162e-23
1.405721795e-23
1.179850333e-23
9.906694823e-24
8.321512675e-24
6.992697376e-24
5.878323854e-24
4.943402772e-24
4.158719442e-24
3.49986948e-24
2.946457458e-24
2.481430653e-24
2.090524857e-24
1.761803152e-24
1.485271878e-24
1.252560714e-24
1.056656037e-24
8.916785919e-25
7.526980058e-25
6.355779824e-25
5.368470342e-25
4.535904944e-25
3.833602637e-25
3.240993465e-25
2.740787258e-25
2.318445355e-25
1.96173833e-25
1.660375554e-25
1.405694801e-25
1.190402059e-25
1.008353342e-25
8.543716408e-26
7.240933061e-26
6.138390736e-26
5.205057407e-26
4.41475153e-26
3.74537708e-26
3.17828036e-26
2.697709012e-26
2.290356831e-26
1.94498064e-26
1.652077716e-26
1.403614092e-26
1.192795656e-26
1.013875226e-26
8.619899082e-27
7.330239308e-27
6.234929396e-27
5.30446357e-27
4.513849667e-27
3.841913265e-27
3.270709965e-27
2.785028873e-27
2.371973014e-27
2.020604655e-27
1.721645426e-27
1.467222684e-27
1.250654955e-27
1.066270364e-27
9.092529622e-28
7.755126115e-28
6.615748026e-28
5.64487322e-28
4.817411726e-28
4.112035571e-28
3.510610671e-28
2.99771515e-28
2.56023082e-28
2.186996643e-28
1.868514689e-28
1.596700588e-28
1.364671698e-28
1.166567232e-28
9.973955048e-29
8.529041714e-29
7.294699763e-29
6.240050558e-29
5.338772939e-29
4.568426065e-29
3.909873564e-29
3.346793722e-29
2.865262771e-29
2.453400284e-29
2.101067366e-29
1.799609717e-29
1.541638858e-29
1.320845809e-29
1.13184237e-29
9.700258973e-30
8.314640592e-30
7.127966156e-30
6.111516776e-30
5.240743041e-30
4.494656045e-30
3.855307914e-30
3.307348601e-30
2.837647668e-30
2.434971471e-30
2.089707585e-30
1.793629503e-30
1.539695688e-30
1.321877942e-30
1.135014769e-30
9.746860885e-31
8.371061628e-31
7.190320715e-31
6.176854701e-31
5.306856882e-31
4.559925141e-31
3.918572575e-31
3.36780884e-31
2.894781938e-31
2.488471678e-31
2.139427308e-31
1.83954292e-31
1.581865162e-31
1.360428579e-31
1.170114604e-31
1.006530765e-31
8.659072124e-32
7.450080639e-32
6.410554287e-32
5.516642975e-32
4.747867299e-32
4.086640088e-32
3.517856169e-32
3.028540581e-32
2.607546886e-32
2.245298385e-32
1.933566128e-32
1.665278453e-32
1.434357559e-32
1.235579251e-32
1.064452573e-32
9.171164734e-33
7.902511037e-33
6.810016561e-33
5.869129633e-33
5.058733344e-33
4.360663154e-33
3.759292523e-33
3.241176929e-33
2.794748019e-33
2.410050797e-33
2.07851777e-33
1.792774835e-33
1.546474431e-33
1.334152101e-33
1.151103181e-33
9.932767646e-34
8.571845291e-34
7.398223188e-34
6.386027027e-34
5.512969597e-34
4.759851711e-34
4.110132816e-34
3.549561531e-34
3.065857714e-34
2.648438842e-34
2.288184506e-34
1.977233702e-34
1.708810313e-34
1.477072869e-34
1.276985183e-34
1.104204953e-34
9.549878287e-35
8.261047899e-35
7.147709765e-35
6.185843834e-35
5.35473045e-35
4.636495312e-35
4.015717376e-35
3.47909098e-35
3.015134649e-35
2.613940131e-35
2.266956062e-35
1.966801493e-35
1.707105115e-35
1.48236665e-35
1.287837334e-35
1.119416853e-35
9.735644591e-36
8.472223124e-36
7.377493595e-36
6.428642959e-36
5.605963609e-36
4.892428844e-36
4.27332659e-36
3.735943325e-36
3.269291316e-36
2.863873218e-36
2.511478902e-36
2.205010075e-36
1.93832889e-36
1.70612724e-36
1.503813918e-36
1.327417177e-36
1.173500592e-36
1.039090396e-36
9.216127209e-37
8.188393968e-37
7.288411233e-37
6.499470214e-37
5.807096834e-37
5.198749767e-37
4.663559496e-37
4.192102811e-37
3.776207907e-37
3.408785918e-37
3.083685287e-37
2.795565854e-37
2.539789997e-37
2.312328496e-37
2.109679115e-37
1.928796192e-37
1.767029714e-37
1.622072624e-37
1.491915218e-37
1.374805678e-37
1.269215923e-37
1.173812033e-37
1.087428656e-37
1.009046831e-37
9.377747889e-38
8.728313237e-38
8.135313662e-38
7.592735031e-38
7.0952914e-38
6.638331146e-38
6.217755486e-38
5.829947842e-38
5.471712469e-38
5.140221206e-38
4.832967244e-38
4.547724939e-38
4.282514859e-38
4.035573441e-38
3.805326537e-38
3.59036642e-38
3.389431732e-38
3.20139004e-38
3.025222592e-38
2.86001104e-38
2.704925825e-38
2.559216034e-38
2.422200518e-38
2.293260144e-38
2.17183097e-38
2.057398275e-38
1.949491316e-38
1.84767873e-38
1.751564446e-38
1.660784124e-38
1.575001996e-38
1.49390808e-38
1.417215692e-38
1.344659274e-38
1.275992433e-38
1.210986232e-38
1.149427629e-38
1.091118104e-38
1.035872435e-38
9.835175909e-39
9.338917466e-39
8.868433848e-39
8.42230502e-39
7.999198746e-39
7.597864083e-39
7.217125434e-39
6.855877141e-39
6.513078521e-39
6.187749417e-39
5.878966125e-39
5.585857565e-39
5.307601846e-39
5.043423068e-39
4.792588497e-39
4.554405765e-39
4.328220411e-39
4.113413575e-39
3.909399907e-39
3.715625467e-39
3.531565976e-39
3.356725048e-39
3.190632597e-39
3.032843333e-39
2.882935371e-39
2.740508909e-39
2.605185008e-39
2.476604431e-39
2.354426561e-39
2.238328422e-39
2.128003685e-39
2.023161781e-39
1.923527043e-39
1.828837954e-39
1.738846353e-39
1.653316747e-39
1.572025639e-39
1.494760912e-39
1.421321207e-39
1.351515386e-39
1.28516201e-39
1.22208879e-39
1.162132154e-39
1.105136785e-39
1.050955192e-39
9.994473207e-40
9.504801596e-40
9.03927386e-40
8.596690286e-40
8.175911304e-40
7.775854394e-40
7.395491336e-40
7.033845445e-40
6.689988851e-40
6.363040113e-40
6.0521618e-40
5.756558306e-40
5.475473759e-40
5.208189914e-40
4.95402436e-40
4.712328638e-40
4.482486647e-40
4.263912891e-40
4.056051029e-40
3.858372305e-40
3.670374261e-40
3.491579357e-40
3.32153378e-40
3.159806167e-40
3.005986616e-40
2.859685412e-40
2.720532234e-40
2.588175052e-40
2.462279214e-40
2.342526611e-40
2.22861488e-40
2.120256545e-40
2.017178331e-40
1.919120431e-40
1.825835796e-40
1.737089537e-40
1.652658359e-40
1.572329909e-40
1.49590223e-40
1.423183301e-40
1.353990499e-40
1.288150138e-40
1.225497016e-40
1.165874004e-40
1.109131614e-40
1.055127671e-40
1.003726905e-40
9.548005778e-41
9.082262373e-41
8.63887337e-41
8.216729799e-41
7.81477646e-41
7.432008865e-41
7.067471358e-41
6.720254805e-41
6.389494253e-41
6.074367703e-41
5.774094493e-41
5.487934592e-41
5.215188583e-41
4.955198034e-41
4.707348319e-41
4.471072686e-41
4.24586034e-41
4.031268969e-41
3.826945035e-41
3.632655663e-41
3.448338299e-41
3.274176759e-41
3.110718778e-41
1.876415027e-41
9.48625269e-42
4.78296118e-42
2.407402319e-42
1.208932161e-42
6.055149994e-43
3.024457442e-43
1.50633589e-43
7.480165776e-44
3.703275778e-44
1.82778431e-44
8.992926976e-45
4.410584561e-45
2.15621375e-45
1.050764235e-45
5.103816218e-46
2.470740532e-46
1.192464717e-46
5.734878613e-47
2.750587771e-47
1.315071476e-47
6.264144143e-48
2.96595652e-48
1.413913936e-48
6.692796404e-49
3.145465388e-49
1.482476538e-49
6.859840143e-50
3.203893426e-50
1.490612646e-50
6.694180001e-51
3.324466085e-51
1.817733141e-51
6.27376669e-52
1.409447983e-51
5.735125947e-52
0
2.713798579e-52
6.433722391e-52
3.540752376e-53
9.508995176e-52
4.946907072e-53
7.685837138e-53
8.153859858e-53
1.118024176e-51
1.87951055e-51
1.184177323e-52
3.384356592e-51
0
1.34209689e-52
3.156752358e-51
1.109103355e-51
3.365268718e-53
2.155758963e-52
7.808459104e-52
0
0
2.300410762e-51
1.903402704e-51
7.005733613e-53
1.044234828e-52
2.015962457e-51
9.144674023e-52
0
0
0
1.246435785e-52
5.627376282e-54
6.605878551e-54
3.180763944e-52
5.145827292e-54
0
3.466791413e-52
2.181725841e-52
0
0
2.468246358e-51
1.416823e-51
5.503478227e-52
1.3028993e-53
3.300904559e-52
5.440950979e-52
1.246296785e-51
7.509418409e-52
2.77773905e-52
0
1.542042779e-52
1.458208849e-52
4.424255006e-52
3.931207987e-52
1.51155379e-52
3.327174678e-53
2.58565224e-53
8.944024103e-55
1.565045803e-53
2.813361979e-54
0
0
6.358659256e-56
1.871935209e-53
1.299164132e-54
1.169850965e-52
3.425666492e-53
6.654774838e-53
7.889110677e-53
0
0
0
2.657813187e-53
1.024114291e-54
3.749761717e-53
2.835572819e-53
7.509383119e-55
2.109731955e-53
3.796524824e-53
1.896850214e-53
3.217123545e-53
5.225089472e-54
7.061481224e-54
1.628616595e-53
2.128447853e-53
2.691084673e-54
3.309621161e-53
1.322926644e-53
2.13475527e-53
1.455816755e-53
0
3.02721137e-54
1.604684463e-55
6.804863227e-54
3.174139458e-54
0
7.499842741e-54
3.290758402e-55
1.072626201e-53
1.15541379e-53
0
1.168411642e-53
2.387064744e-53
1.312455428e-53
0
2.997381519e-55
3.782331554e-53
1.265877357e-53
7.160910857e-54
0
0
3.997465652e-53
6.030039682e-53
3.96497509e-53
6.63881704e-53
1.598493476e-53
4.272863553e-53
0
1.129121829e-53
2.955177569e-55
4.681635554e-55
3.718543717e-55
2.770342651e-53
4.673533874e-53
8.421517548e-53
9.887427153e-53
3.229024993e-53
6.832925194e-53
1.572500379e-52
0
5.101467708e-53
2.445596036e-54
1.067204662e-53
2.866347728e-53
0
0
0
0
4.150379046e-53
0
8.646968492e-53
1.351978472e-53
4.902752726e-53
6.592027636e-53
1.521341776e-52
1.159945928e-52
3.439867068e-53
8.117279702e-53
9.191511178e-53
1.356327057e-53
9.977326968e-54
1.254240819e-53
4.596281819e-53
1.356320852e-53
5.184331045e-53
2.570141498e-53
0
8.642319949e-53
9.920153947e-53
1.242889857e-53
8.62578279e-53
2.052999693e-53
4.616529965e-53
0
0
0
6.084600653e-54
0
0
0
2.350076849e-53
1.285217e-53
2.348519934e-54
5.785797927e-54
6.753410563e-54
1.320909961e-53
7.369304321e-54
0
0
2.02581986e-53
2.811122524e-55
1.720165288e-53
1.476697091e-55
3.948221956e-54
4.654218662e-54
2.742531602e-54
1.477431829e-56
1.909621263e-54
0
5.603209184e-54
2.47434351e-54
6.601255434e-54
0
0
9.121712511e-54
8.497030922e-54
2.539241228e-54
8.733324216e-54
7.162963136e-55
1.465432422e-53
3.360270664e-54
2.059468887e-53
3.112567233e-54
0
0
0
9.99515252e-56
4.966453057e-55
0
0
0
0
3.034570798e-54
0
)
;

boundaryField
{
    inlet
    {
        type            fixedValue;
        value           uniform 0;
    }
    outlet
    {
        type            zeroGradient;
    }
    wall
    {
        type            empty;
    }
}


// ************************************************************************* //
