/*--------------------------------*- C++ -*----------------------------------*\
  =========                 |
  \\      /  F ield         | OpenFOAM: The Open Source CFD Toolbox
   \\    /   O peration     | Website:  https://openfoam.org
    \\  /    A nd           | Version:  7
     \\/     M anipulation  |
\*---------------------------------------------------------------------------*/
FoamFile
{
    version     2.0;
    format      ascii;
    class       volScalarField;
    location    "0.000558243009";
    object      C7H14O;
}
// * * * * * * * * * * * * * * * * * * * * * * * * * * * * * * * * * * * * * //

dimensions      [0 0 0 0 0 0 0];

internalField   nonuniform List<scalar> 
1500
(
1.010668566e-18
3.927533598e-18
8.069940558e-18
1.2029026e-17
1.491407103e-17
1.663034258e-17
1.749730029e-17
1.787836315e-17
1.802662314e-17
1.807837428e-17
1.809476285e-17
1.80995162e-17
1.810078908e-17
1.810110596e-17
1.810117973e-17
1.810119587e-17
1.81011992e-17
1.810119985e-17
1.810119997e-17
1.81012e-17
1.81012e-17
1.81012e-17
1.81012e-17
1.81012e-17
1.81012e-17
1.81012e-17
1.81012e-17
1.81012e-17
1.81012e-17
1.81012e-17
1.81012e-17
1.81012e-17
1.81012e-17
1.81012e-17
1.81012e-17
1.81012e-17
1.81012e-17
1.81012e-17
1.81012e-17
1.81012e-17
1.81012e-17
1.81012e-17
1.81012e-17
1.81012e-17
1.81012e-17
1.81012e-17
1.81012e-17
1.81012e-17
1.81012e-17
1.81012e-17
1.81012e-17
1.81012e-17
1.81012e-17
1.81012e-17
1.81012e-17
1.81012e-17
1.81012e-17
1.81012e-17
1.81012e-17
1.81012e-17
1.81012e-17
1.81012e-17
1.81012e-17
1.81012e-17
1.81012e-17
1.81012e-17
1.81012e-17
1.81012e-17
1.81012e-17
1.81012e-17
1.81012e-17
1.81012e-17
1.81012e-17
1.81012e-17
1.81012e-17
1.81012e-17
1.81012e-17
1.81012e-17
1.81012e-17
1.81012e-17
1.81012e-17
1.81012e-17
1.81012e-17
1.81012e-17
1.81012e-17
1.81012e-17
1.81012e-17
1.81012e-17
1.81012e-17
1.81012e-17
1.81012e-17
1.81012e-17
1.81012e-17
1.81012e-17
1.81012e-17
1.81012e-17
1.81012e-17
1.81012e-17
1.81012e-17
1.81012e-17
1.81012e-17
1.81012e-17
1.81012e-17
1.81012e-17
1.81012e-17
1.81012e-17
1.81012e-17
1.81012e-17
1.81012e-17
1.81012e-17
1.81012e-17
1.81012e-17
1.81012e-17
1.81012e-17
1.81012e-17
1.81012e-17
1.81012e-17
1.81012e-17
1.81012e-17
1.81012e-17
1.81012e-17
1.81012e-17
1.81012e-17
1.81012e-17
1.81012e-17
1.81012e-17
1.81012e-17
1.81012e-17
1.81012e-17
1.81012e-17
1.81012e-17
1.81012e-17
1.81012e-17
1.81012e-17
1.81012e-17
1.81012e-17
1.81012e-17
1.81012e-17
1.81012e-17
1.81012e-17
1.81012e-17
1.81012e-17
1.81012e-17
1.81012e-17
1.81012e-17
1.81012e-17
1.81012e-17
1.81012e-17
1.81012e-17
1.81012e-17
1.81012e-17
1.81012e-17
1.81012e-17
1.81012e-17
1.81012e-17
1.81012e-17
1.81012e-17
1.81012e-17
1.81012e-17
1.81012e-17
1.81012e-17
1.81012e-17
1.81012e-17
1.81012e-17
1.81012e-17
1.81012e-17
1.81012e-17
1.81012e-17
1.81012e-17
1.81012e-17
1.81012e-17
1.81012e-17
1.81012e-17
1.81012e-17
1.81012e-17
1.81012e-17
1.81012e-17
1.81012e-17
1.81012e-17
1.81012e-17
1.81012e-17
1.81012e-17
1.81012e-17
1.81012e-17
1.81012e-17
1.81012e-17
1.81012e-17
1.81012e-17
1.81012e-17
1.81012e-17
1.81012e-17
1.81012e-17
1.81012e-17
1.81012e-17
1.81012e-17
1.81012e-17
1.81012e-17
1.81012e-17
1.81012e-17
1.81012e-17
1.81012e-17
1.81012e-17
1.81012e-17
1.81012e-17
1.81012e-17
1.81012e-17
1.81012e-17
1.81012e-17
1.81012e-17
1.81012e-17
1.81012e-17
1.81012e-17
1.81012e-17
1.81012e-17
1.81012e-17
1.81012e-17
1.81012e-17
1.81012e-17
1.81012e-17
1.81012e-17
1.81012e-17
1.81012e-17
1.81012e-17
1.81012e-17
1.81012e-17
1.81012e-17
1.81012e-17
1.81012e-17
1.81012e-17
1.81012e-17
1.81012e-17
1.81012e-17
1.81012e-17
1.81012e-17
1.81012e-17
1.81012e-17
1.81012e-17
1.81012e-17
1.810120001e-17
1.810120002e-17
1.810120005e-17
1.81012002e-17
1.810120087e-17
1.810120379e-17
1.810121551e-17
1.810125818e-17
1.810139696e-17
1.810179061e-17
1.810271986e-17
1.810431352e-17
1.810465977e-17
1.810480403e-17
1.810495452e-17
1.810511154e-17
1.810527533e-17
1.810544613e-17
1.810562424e-17
1.810580999e-17
1.810600372e-17
1.810620578e-17
1.810641655e-17
1.810663641e-17
1.810686576e-17
1.810710502e-17
1.810735464e-17
1.810761508e-17
1.810788681e-17
1.810817036e-17
1.810846624e-17
1.810877501e-17
1.810909725e-17
1.810943357e-17
1.81097846e-17
1.811015101e-17
1.81105335e-17
1.811093279e-17
1.811134966e-17
1.811178489e-17
1.811223935e-17
1.811271389e-17
1.811320945e-17
1.811372699e-17
1.811426753e-17
1.811483213e-17
1.81154219e-17
1.811603802e-17
1.811668171e-17
1.811735427e-17
1.811805703e-17
1.811879143e-17
1.811955895e-17
1.812036116e-17
1.81211997e-17
1.81220763e-17
1.812299278e-17
1.812395104e-17
1.81249531e-17
1.812600107e-17
1.812709717e-17
1.812824374e-17
1.812944324e-17
1.813069827e-17
1.813201156e-17
1.813338599e-17
1.81348246e-17
1.813633059e-17
1.813790734e-17
1.813955842e-17
1.814128758e-17
1.814309882e-17
1.814499634e-17
1.814698457e-17
1.814906822e-17
1.815125227e-17
1.815354197e-17
1.815594291e-17
1.8158461e-17
1.816110249e-17
1.816387404e-17
1.816678269e-17
1.816983593e-17
1.81730417e-17
1.817640846e-17
1.817994518e-17
1.818366142e-17
1.818756734e-17
1.819167376e-17
1.819599221e-17
1.820053497e-17
1.820531513e-17
1.821034665e-17
1.821564444e-17
1.822122439e-17
1.822710347e-17
1.823329983e-17
1.823983283e-17
1.824672318e-17
1.825399302e-17
1.826166602e-17
1.82697675e-17
1.827832454e-17
1.828736615e-17
1.829692333e-17
1.83070293e-17
1.83177196e-17
1.832903229e-17
1.834100811e-17
1.835369069e-17
1.836712673e-17
1.838136623e-17
1.839646272e-17
1.841247351e-17
1.842945993e-17
1.84474876e-17
1.846662675e-17
1.848695249e-17
1.850854517e-17
1.853149069e-17
1.855588086e-17
1.858181378e-17
1.860939427e-17
1.863873421e-17
1.866995306e-17
1.870317825e-17
1.873854568e-17
1.877620023e-17
1.881629624e-17
1.88589981e-17
1.890448074e-17
1.895293026e-17
1.900454451e-17
1.905953373e-17
1.911812112e-17
1.91805436e-17
1.924705239e-17
1.931791374e-17
1.939340964e-17
1.947383855e-17
1.955951609e-17
1.965077584e-17
1.974797006e-17
1.985147046e-17
1.9961669e-17
2.00789786e-17
2.020383399e-17
2.033669242e-17
2.047803447e-17
2.062836476e-17
2.078821278e-17
2.095813354e-17
2.113870834e-17
2.133054544e-17
2.153428076e-17
2.175057847e-17
2.198013165e-17
2.222366282e-17
2.248192446e-17
2.275569954e-17
2.304580188e-17
2.335307655e-17
2.367840019e-17
2.40226812e-17
2.438685997e-17
2.477190894e-17
2.517883263e-17
2.560866754e-17
2.606248204e-17
2.654137607e-17
2.704648082e-17
2.757895827e-17
2.814000065e-17
2.873082977e-17
2.935269623e-17
3.000687858e-17
3.06946823e-17
3.141743867e-17
3.217650357e-17
3.297325612e-17
3.380909722e-17
3.468544793e-17
3.560374783e-17
3.656545316e-17
3.75720349e-17
3.862497671e-17
3.972577284e-17
4.087592581e-17
4.207694408e-17
4.333033963e-17
4.46376254e-17
4.600031267e-17
4.741990837e-17
4.889791234e-17
5.043581448e-17
5.20350919e-17
5.3697206e-17
5.542359953e-17
5.721569358e-17
5.907488468e-17
6.100254173e-17
6.300000309e-17
6.50685736e-17
6.720952166e-17
6.942407638e-17
7.171342473e-17
7.407870882e-17
7.652102321e-17
7.904141237e-17
8.164086815e-17
8.432032751e-17
8.708067022e-17
8.992271682e-17
9.284722668e-17
9.585489625e-17
9.894635741e-17
1.021221761e-16
1.053828512e-16
1.087288133e-16
1.121604239e-16
1.156779754e-16
1.192816897e-16
1.229717192e-16
1.26748146e-16
1.30610983e-16
1.345601742e-16
1.385955953e-16
1.427170558e-16
1.469242992e-16
1.51217006e-16
1.555947945e-16
1.600572242e-16
1.646037974e-16
1.69233963e-16
1.739471188e-16
1.787426157e-16
1.836197611e-16
1.885778231e-16
1.936160349e-16
1.987335997e-16
2.039296954e-16
2.092034804e-16
2.145540992e-16
2.199806882e-16
2.254823827e-16
2.31058323e-16
2.367076624e-16
2.424295737e-16
2.482232582e-16
2.540879532e-16
2.600229414e-16
2.660275594e-16
2.721012079e-16
2.782433616e-16
2.844535796e-16
2.907315169e-16
2.970769352e-16
3.03489716e-16
3.099698724e-16
3.16517563e-16
3.231331053e-16
3.298169904e-16
3.365698983e-16
3.433927133e-16
3.50286541e-16
3.572527251e-16
3.642928659e-16
3.714088387e-16
3.786028136e-16
3.858772758e-16
3.932350471e-16
4.006793081e-16
4.08213621e-16
4.158419543e-16
4.235687084e-16
4.3139874e-16
4.393373946e-16
4.473905296e-16
4.555645428e-16
4.638664048e-16
4.723036905e-16
4.808846123e-16
4.896180537e-16
4.985136042e-16
5.07581595e-16
5.168331359e-16
5.262801521e-16
5.359354231e-16
5.458126219e-16
5.559263556e-16
5.66292205e-16
5.769267693e-16
5.878477092e-16
5.990737927e-16
6.106249394e-16
6.225222717e-16
6.347881603e-16
6.474462697e-16
6.605216089e-16
6.740405828e-16
6.880310438e-16
7.025223442e-16
7.175453893e-16
7.331326917e-16
7.493184271e-16
7.661384905e-16
7.836305542e-16
8.018341268e-16
8.207906139e-16
8.405433798e-16
8.611378117e-16
8.826213849e-16
9.05043731e-16
9.284567076e-16
9.529144713e-16
9.784735532e-16
1.005192938e-15
1.033134146e-15
1.062361322e-15
1.092941321e-15
1.124943813e-15
1.158441375e-15
1.193509609e-15
1.230227249e-15
1.268676286e-15
1.308942102e-15
1.351113602e-15
1.395283375e-15
1.441547842e-15
1.49000744e-15
1.540766798e-15
1.593934942e-15
1.649625506e-15
1.707956965e-15
1.769052882e-15
1.833042172e-15
1.900059397e-15
1.970245069e-15
2.043745988e-15
2.120715598e-15
2.201314385e-15
2.285710286e-15
2.374079156e-15
2.466605258e-15
2.563481805e-15
2.664911557e-15
2.771107477e-15
2.882293464e-15
2.998705176e-15
3.120590977e-15
3.248213021e-15
3.381848536e-15
3.521791356e-15
3.668353787e-15
3.821868917e-15
3.982693526e-15
4.151211815e-15
4.327840233e-15
4.513033832e-15
4.707294676e-15
4.911183115e-15
5.125332947e-15
5.35047196e-15
5.587449877e-15
5.837276466e-15
6.101173692e-15
6.380647186e-15
6.677584351e-15
6.994389177e-15
7.334167643e-15
7.700982864e-15
8.100206357e-15
8.539001796e-15
9.026991385e-15
9.577173907e-15
1.020718965e-14
1.094106333e-14
1.181160579e-14
1.286372332e-14
1.415897764e-14
1.578186895e-14
1.784849274e-14
2.051846637e-14
2.401135959e-14
2.8629328e-14
3.478828871e-14
4.306085822e-14
5.423548454e-14
6.939787241e-14
9.004309314e-14
1.182299228e-13
1.567932854e-13
2.096366314e-13
2.821342635e-13
3.816848513e-13
5.184727996e-13
7.065152926e-13
9.651018503e-13
1.320773015e-12
1.810039269e-12
2.483115869e-12
3.409051343e-12
4.68276681e-12
6.434713759e-12
8.844117627e-12
1.215712841e-11
1.671168104e-11
2.297152232e-11
3.157274843e-11
4.338739815e-11
5.961026902e-11
8.187731085e-11
1.124268896e-10
1.543191541e-10
2.117339994e-10
2.903751207e-10
3.980169324e-10
5.452433568e-10
7.464435441e-10
1.021150508e-09
1.395835771e-09
1.906307943e-09
2.600907557e-09
3.544746475e-09
4.825310054e-09
6.559826367e-09
8.90491128e-09
1.206912299e-08
1.632920581e-08
2.205097001e-08
2.971594101e-08
3.99551108e-08
5.359133132e-08
7.169208911e-08
9.563457944e-08
1.271851351e-07
1.685951389e-07
2.227155394e-07
2.931319748e-07
3.843222813e-07
5.018378209e-07
6.525096122e-07
8.446797314e-07
1.088457886e-06
1.396002514e-06
1.781825266e-06
2.263117284e-06
2.860095377e-06
3.596365951e-06
4.499304429e-06
5.600447958e-06
6.935900277e-06
8.546747156e-06
1.047948598e-05
1.278647436e-05
1.552641085e-05
1.876486993e-05
2.257492188e-05
2.703786814e-05
3.224131303e-05
3.829489676e-05
4.529262396e-05
5.342704051e-05
6.284200537e-05
7.368710118e-05
8.562434854e-05
9.874735229e-05
0.0001125648371
0.0001259617253
0.0001372210782
0.0001447509149
0.0001481343536
0.0001482244645
0.0001461656862
0.000142760397
0.0001384500997
0.0001333136815
0.0001277640449
0.0001217275356
0.0001152488697
0.0001082138699
0.0001009771614
9.345840795e-05
8.573974435e-05
7.779466576e-05
6.99356405e-05
6.217863111e-05
5.465123716e-05
4.747395906e-05
4.075380331e-05
3.457984516e-05
2.895449051e-05
2.402527647e-05
1.970451316e-05
1.603805656e-05
1.295272514e-05
1.039294667e-05
8.296172733e-06
6.598940387e-06
5.210264288e-06
4.08616966e-06
3.195101043e-06
2.492554697e-06
1.941008406e-06
1.509443479e-06
1.172564385e-06
9.100321176e-07
7.055878597e-07
5.46551056e-07
4.272351774e-07
3.343511941e-07
2.603521764e-07
2.030564413e-07
1.586262997e-07
1.241002795e-07
9.721433752e-08
7.623861507e-08
5.98833594e-08
4.706494704e-08
3.702820461e-08
2.916174947e-08
2.299041258e-08
1.814429855e-08
1.433512896e-08
1.133803171e-08
8.977458846e-09
7.116266484e-09
5.647232578e-09
4.486462141e-09
3.568256591e-09
2.841120657e-09
2.264653333e-09
1.807126194e-09
1.443595822e-09
1.154432192e-09
9.241700961e-10
7.406121449e-10
5.941276712e-10
4.771041965e-10
3.835178498e-10
3.085965952e-10
2.485559391e-10
2.003912948e-10
1.617146809e-10
1.306261462e-10
1.056124259e-10
8.546697358e-11
6.922679189e-11
5.612247817e-11
4.553867869e-11
3.698274871e-11
3.005988939e-11
2.445340227e-11
1.990899166e-11
1.6222272e-11
1.322881591e-11
1.079621792e-11
8.817759387e-12
7.207346516e-12
5.895461556e-12
4.82592133e-12
3.953279537e-12
3.240743018e-12
2.658498696e-12
2.18236902e-12
1.792730394e-12
1.473642378e-12
1.212145944e-12
9.976974714e-13
8.217118234e-13
6.771931599e-13
5.584363902e-13
4.607855414e-13
3.804380322e-13
3.142859993e-13
2.597875576e-13
2.148622652e-13
1.778061742e-13
1.472227445e-13
1.219666154e-13
1.010978073e-13
8.384439147e-14
6.957203877e-14
5.775916325e-14
4.797661688e-14
3.987109115e-14
3.315153938e-14
2.757806227e-14
2.29528039e-14
1.911248942e-14
1.592230456e-14
1.327087239e-14
1.106612802e-14
9.231928679e-15
7.705266295e-15
6.433974205e-15
5.374839198e-15
4.492046402e-15
3.75589756e-15
3.141754056e-15
2.629164783e-15
2.201146131e-15
1.843587253e-15
1.544758527e-15
1.294905114e-15
1.085910689e-15
9.110190937e-16
7.64603823e-16
6.419770152e-16
5.392311098e-16
4.531075171e-16
3.808876396e-16
3.203023977e-16
2.694570828e-16
2.267689121e-16
1.909151139e-16
1.607897479e-16
1.354677751e-16
1.141751457e-16
9.626388767e-17
8.119134924e-17
6.85028959e-17
5.781748089e-17
4.881560661e-17
4.122927655e-17
3.483360515e-17
2.94398091e-17
2.488935021e-17
2.104903859e-17
1.780693706e-17
1.506893433e-17
1.275587651e-17
1.080116511e-17
9.148744774e-18
7.751416984e-18
6.569426224e-18
5.569274228e-18
4.722725087e-18
4.005970175e-18
3.398926973e-18
2.884650077e-18
2.448836264e-18
2.079408442e-18
1.766165777e-18
1.500489364e-18
1.275094535e-18
1.083822335e-18
9.214639116e-19
7.836125733e-19
6.66539104e-19
5.670866512e-19
4.825820773e-19
4.107611734e-19
3.497055449e-19
2.977893293e-19
2.536342003e-19
2.160713566e-19
1.841094006e-19
1.569071859e-19
1.337508575e-19
1.140344318e-19
9.724336426e-20
8.294064239e-20
7.07550117e-20
6.037100441e-20
5.152049275e-20
4.397553157e-20
3.75422918e-20
3.205591704e-20
2.737616156e-20
2.338369022e-20
1.997693877e-20
1.706944913e-20
1.458760727e-20
1.246872218e-20
1.065939427e-20
9.114129259e-21
7.794160216e-21
6.666446366e-21
5.702821912e-21
4.879272228e-21
4.175318222e-21
3.57349261e-21
3.058894261e-21
2.618808915e-21
2.242386307e-21
1.92036526e-21
1.644839582e-21
1.409058645e-21
1.207257509e-21
1.034512161e-21
8.866161376e-22
7.599753659e-22
6.515184972e-22
5.586204512e-22
4.790372064e-22
4.10850174e-22
3.524187384e-22
3.023397588e-22
2.594130038e-22
2.226116466e-22
1.910570736e-22
1.639973737e-22
1.407889668e-22
1.208809109e-22
1.038014951e-22
8.914678362e-23
7.657082554e-23
6.577728612e-23
5.651229291e-23
4.85583188e-23
4.172895108e-23
3.586441742e-23
3.082775867e-23
2.650155446e-23
2.278512124e-23
1.959211436e-23
1.684847546e-23
1.449067532e-23
1.246420925e-23
1.072230873e-23
9.224837846e-24
7.937347992e-24
6.830268032e-24
5.878210324e-24
5.059376016e-24
4.355045298e-24
3.749140428e-24
3.227851084e-24
2.779313098e-24
2.393332943e-24
2.061151406e-24
1.775240859e-24
1.529131317e-24
1.31726118e-24
1.134849143e-24
9.777842423e-25
8.425314766e-25
7.260507695e-25
6.257273887e-25
5.393121901e-25
4.648702941e-25
4.007369976e-25
3.454798991e-25
2.978663544e-25
2.568355119e-25
2.214742778e-25
1.909966591e-25
1.647260048e-25
1.420797393e-25
1.225562351e-25
1.057235247e-25
9.120959304e-26
7.869402684e-26
6.790083254e-26
5.859225695e-26
5.056347082e-26
4.363799419e-26
3.766375968e-26
3.250972433e-26
2.806295333e-26
2.422610965e-26
2.091529291e-26
1.805817863e-26
1.559241606e-26
1.346424852e-26
1.162732514e-26
1.004167749e-26
8.672838067e-27
7.491080863e-27
6.470767194e-27
5.589782005e-27
4.829048173e-27
4.17210797e-27
3.604762354e-27
3.114760093e-27
2.691529792e-27
2.32594891e-27
2.010144623e-27
1.737322142e-27
1.501616682e-27
1.297965821e-27
1.121999421e-27
9.699447043e-28
8.385443727e-28
7.249859884e-28
6.268410535e-28
5.420124569e-28
4.686891339e-28
4.053069465e-28
3.505149285e-28
3.031461575e-28
2.621926174e-28
2.267835044e-28
1.961665012e-28
1.696916149e-28
1.467972249e-28
1.269980373e-28
1.09874687e-28
9.506475882e-29
8.225503472e-29
7.117479966e-29
6.159006009e-29
5.329855112e-29
4.61254241e-29
3.991952185e-29
3.455016116e-29
2.990435325e-29
2.588440261e-29
2.240583235e-29
1.939559172e-29
1.679050721e-29
1.453594418e-29
1.258465021e-29
1.089575546e-29
9.433908752e-30
8.168530824e-30
7.073168851e-30
6.124938474e-30
5.304041441e-30
4.593348589e-30
3.978039295e-30
3.445289738e-30
2.984003342e-30
2.584577682e-30
2.238702916e-30
1.939187456e-30
1.679807208e-30
1.455175167e-30
1.260628633e-30
1.092131643e-30
9.461905792e-31
8.197811591e-31
7.102852714e-31
6.154363312e-31
5.332719987e-31
4.620932698e-31
4.004290777e-31
3.470056606e-31
3.00720054e-31
2.606171508e-31
2.258698468e-31
1.957618584e-31
1.696728494e-31
1.470655583e-31
1.274746547e-31
1.104970941e-31
9.578376703e-32
8.303227032e-32
7.19806488e-32
6.240197671e-32
5.409966624e-32
4.690340547e-32
4.066564099e-32
3.525853214e-32
3.057131353e-32
2.650801091e-32
2.298546315e-32
1.993160911e-32
1.728400386e-32
1.498853364e-32
1.299830272e-32
1.127266922e-32
9.776409991e-33
8.47899707e-33
7.353970973e-33
6.378397719e-33
5.532398444e-33
4.798741854e-33
4.162491131e-33
3.610697987e-33
3.132137579e-33
2.717078809e-33
2.357085275e-33
2.044842791e-33
1.774009912e-33
1.539088399e-33
1.335310951e-33
1.158543911e-33
1.005202939e-33
8.721799185e-34
7.567796064e-34
6.566647189e-34
5.698083312e-34
4.944526153e-34
4.290730705e-34
3.723475146e-34
3.231292015e-34
2.804235153e-34
2.433677639e-34
2.112136605e-34
1.833121338e-34
1.591001575e-34
1.380893306e-34
1.198559747e-34
1.040325474e-34
9.030019566e-35
7.838229888e-35
6.803886864e-35
5.906169224e-35
5.127012082e-35
4.450741627e-35
3.863758303e-35
3.354262e-35
2.912013704e-35
2.528128748e-35
2.194897483e-35
1.905629708e-35
1.654519732e-35
1.43652931e-35
1.247286088e-35
1.082995506e-35
9.403643679e-36
8.165345247e-36
7.090253501e-36
6.156838222e-36
5.346412165e-36
4.642755275e-36
4.031788643e-36
3.501291582e-36
3.04065613e-36
2.640674017e-36
2.293351804e-36
1.991750461e-36
1.729846146e-36
1.502409388e-36
1.304900237e-36
1.133377261e-36
9.844185693e-37
8.550532669e-37
7.427019595e-37
6.451251156e-37
5.603782451e-37
4.867729954e-37
4.228433816e-37
3.673164729e-37
3.190869475e-37
2.771950038e-37
2.40807185e-37
2.091997339e-37
1.81744141e-37
1.578945995e-37
1.371771136e-37
1.191800422e-37
1.035458892e-37
8.996417571e-38
7.816525136e-38
6.791492066e-38
5.900977749e-38
5.127315394e-38
4.455160266e-38
3.871184235e-38
3.363810541e-38
2.922983474e-38
2.539968366e-38
2.207177905e-38
1.918021305e-38
1.666773317e-38
1.448460472e-38
1.258762293e-38
1.093925491e-38
9.506894493e-39
8.262215016e-39
7.180607245e-39
6.240691136e-39
5.42389179e-39
4.714071129e-39
4.097207976e-39
3.561120165e-39
3.095223159e-39
2.690320375e-39
2.338421048e-39
2.032582015e-39
1.76677027e-39
1.535743574e-39
1.334946726e-39
1.16042146e-39
1.008728164e-39
8.768778744e-40
7.622731881e-40
6.626569351e-40
5.7606758e-40
5.008004754e-40
4.353741971e-40
3.785012949e-40
3.290628787e-40
2.860865376e-40
2.487271543e-40
2.162502347e-40
1.880174239e-40
1.634739209e-40
1.421375438e-40
1.235892296e-40
1.0746478e-40
9.344769091e-41
8.126292426e-41
7.067149858e-41
6.146579253e-41
5.346546869e-41
4.651393787e-41
4.047529467e-41
3.523166511e-41
3.068091514e-41
2.673467713e-41
2.331665805e-41
2.036120025e-41
1.781207145e-41
1.5621468e-41
1.374921943e-41
1.216218674e-41
1.083384748e-41
9.744049808e-42
2.702956842e-42
5.849846265e-43
1.253201192e-43
2.669382915e-44
5.656281205e-45
1.192246345e-45
2.499842853e-46
5.214062496e-47
1.0818204e-47
2.232733111e-48
4.583528093e-49
9.358784514e-50
1.900516164e-50
3.838275412e-51
7.708992201e-52
1.539728226e-52
3.058202282e-53
6.040271806e-54
1.186339343e-54
2.316963571e-55
4.49971945e-56
8.689773433e-57
1.668754463e-57
3.186729415e-58
6.051709519e-59
1.142894943e-59
2.146587805e-60
4.009845414e-61
7.450219767e-62
1.37689617e-62
2.531396404e-63
4.630093382e-64
8.42530999e-65
1.525166419e-65
2.748112543e-66
4.928558591e-67
8.800841382e-68
1.525038665e-68
2.692340623e-69
6.876413375e-70
1.137700896e-70
5.934650775e-71
7.148829398e-72
1.462403996e-70
5.104026052e-72
9.312648231e-72
2.174018727e-72
3.895847611e-71
1.703505589e-71
2.352891188e-72
6.543925394e-72
9.318996183e-72
2.605524621e-73
0
4.222071291e-72
8.564368052e-74
3.332792572e-73
1.515291431e-73
1.520954142e-73
2.393877104e-74
1.279794679e-73
4.392149575e-74
1.551620477e-74
5.163067031e-76
7.905637447e-75
3.460180922e-75
8.421180539e-77
2.815490318e-76
6.425520404e-76
4.071320917e-76
2.521609382e-76
2.499314424e-77
2.414173656e-76
2.770515517e-76
1.114797916e-76
2.193957336e-76
4.71520045e-77
2.899053411e-77
1.50531941e-77
1.571425444e-77
2.061164456e-77
1.323371895e-77
5.376091528e-78
2.635947437e-79
4.168699835e-79
5.040542354e-79
6.775781167e-80
3.380394432e-80
9.935149041e-80
3.220306473e-81
2.343569245e-80
4.874751108e-81
1.08800682e-82
2.633040236e-81
5.167945176e-81
9.66201846e-82
6.564067316e-82
6.707648335e-82
1.230660104e-83
0
0
2.090196692e-83
4.045644103e-83
3.767161982e-83
1.039543573e-84
2.361020411e-86
0
9.499533164e-84
4.38413488e-84
7.781051366e-85
0
2.255940145e-85
0
1.973637191e-84
1.073014808e-85
4.28581432e-87
4.720575706e-85
4.683487986e-85
6.697240832e-84
6.590541005e-85
1.024080334e-84
1.130390424e-84
5.608858153e-84
3.490804823e-84
2.90103981e-84
1.718318469e-84
2.485979218e-84
8.583496204e-84
7.588759052e-85
1.467742104e-84
2.482183537e-84
5.507622819e-84
2.627750439e-84
1.125991918e-84
3.958598002e-84
3.997422089e-84
2.289911676e-84
7.763058924e-84
1.053203402e-84
9.056699661e-84
3.519668888e-84
2.220457694e-84
1.140250498e-86
2.512555717e-84
3.469812893e-84
3.320936805e-84
3.841950667e-84
4.05776358e-84
9.388043323e-86
4.536833213e-84
0
2.535042271e-84
1.053545839e-84
1.110823656e-84
2.183919359e-84
5.812150856e-84
1.234099943e-84
2.534774077e-84
2.291997576e-84
4.694288558e-84
6.053918907e-85
8.260506923e-84
5.506271108e-84
0
3.968553303e-84
1.786464543e-84
6.538198704e-84
3.372932895e-84
5.665210626e-84
5.782735861e-84
3.772641457e-84
6.289512112e-84
5.230733012e-84
0
5.365366795e-84
8.280363934e-86
1.374785834e-84
6.082399133e-84
2.494255901e-84
0
4.838622757e-85
0
4.237252129e-84
6.602221594e-85
3.593919254e-84
3.396191422e-86
4.951200782e-87
1.948986606e-84
0
7.719861111e-84
2.510817812e-84
3.421046364e-84
2.411574765e-86
1.806283899e-84
3.53519175e-86
2.676923935e-84
4.394391676e-84
3.329638843e-84
3.890015847e-86
3.196754518e-84
9.444551635e-85
1.99560517e-85
4.604608269e-84
4.25160866e-84
2.518777893e-84
2.840422221e-84
2.803061839e-86
3.222601212e-84
9.28543655e-85
1.214622769e-84
0
6.676942312e-85
1.562941827e-84
5.065637716e-85
1.745220212e-84
1.388876258e-84
2.866868289e-84
1.732011885e-84
1.313570393e-84
3.311868753e-85
6.332906758e-85
3.242481365e-84
6.704274942e-85
7.224934918e-85
1.563548021e-84
4.282945432e-85
4.416030226e-84
5.807173192e-85
0
9.384682002e-85
1.183230805e-84
8.150336402e-87
2.478107421e-85
3.654289192e-84
2.386385563e-84
4.489592918e-86
1.67558776e-84
2.262622258e-85
1.890238936e-84
1.759749547e-86
0
3.122980589e-84
2.229076395e-84
2.601066727e-85
3.52531179e-85
5.316187816e-85
1.053391998e-86
3.269967633e-87
1.9521497e-84
2.600818372e-84
)
;

boundaryField
{
    inlet
    {
        type            fixedValue;
        value           uniform 0;
    }
    outlet
    {
        type            zeroGradient;
    }
    wall
    {
        type            empty;
    }
}


// ************************************************************************* //
