/*--------------------------------*- C++ -*----------------------------------*\
  =========                 |
  \\      /  F ield         | OpenFOAM: The Open Source CFD Toolbox
   \\    /   O peration     | Website:  https://openfoam.org
    \\  /    A nd           | Version:  7
     \\/     M anipulation  |
\*---------------------------------------------------------------------------*/
FoamFile
{
    version     2.0;
    format      ascii;
    class       volScalarField;
    location    "0.000558243009";
    object      C7H15O2;
}
// * * * * * * * * * * * * * * * * * * * * * * * * * * * * * * * * * * * * * //

dimensions      [0 0 0 0 0 0 0];

internalField   nonuniform List<scalar> 
1500
(
3.172607857e-18
1.234733347e-17
2.541426578e-17
3.792175201e-17
4.704023493e-17
5.246291789e-17
5.519976061e-17
5.640121414e-17
5.686793707e-17
5.703052802e-17
5.708185246e-17
5.709661817e-17
5.710046008e-17
5.710130807e-17
5.71014054e-17
5.710133958e-17
5.710125375e-17
5.710117899e-17
5.71011194e-17
5.710107313e-17
5.710103773e-17
5.710101134e-17
5.710099284e-17
5.710098151e-17
5.710097664e-17
5.710097735e-17
5.710098243e-17
5.710099045e-17
5.710099989e-17
5.710100932e-17
5.710101754e-17
5.710102367e-17
5.710102716e-17
5.710102776e-17
5.710102546e-17
5.710102042e-17
5.710101293e-17
5.710100334e-17
5.710099204e-17
5.710097946e-17
5.710096602e-17
5.710095213e-17
5.710093819e-17
5.710092457e-17
5.710091155e-17
5.710089937e-17
5.710088818e-17
5.710087804e-17
5.710086895e-17
5.710086086e-17
5.710085365e-17
5.710084721e-17
5.71008414e-17
5.710083612e-17
5.710083127e-17
5.710082679e-17
5.710082265e-17
5.710081885e-17
5.710081542e-17
5.71008124e-17
5.710080989e-17
5.710080795e-17
5.710080669e-17
5.710080619e-17
5.710080653e-17
5.71008078e-17
5.710081005e-17
5.710081331e-17
5.71008176e-17
5.71008229e-17
5.710082915e-17
5.710083628e-17
5.710084418e-17
5.710085271e-17
5.710086171e-17
5.710087098e-17
5.710088035e-17
5.710088959e-17
5.71008985e-17
5.710090687e-17
5.710091451e-17
5.710092123e-17
5.710092687e-17
5.710093129e-17
5.710093438e-17
5.710093605e-17
5.710093624e-17
5.710093494e-17
5.710093213e-17
5.710092787e-17
5.710092221e-17
5.710091524e-17
5.710090706e-17
5.710089783e-17
5.710088768e-17
5.710087679e-17
5.710086534e-17
5.710085351e-17
5.710084148e-17
5.710082945e-17
5.710081759e-17
5.710080606e-17
5.710079502e-17
5.710078458e-17
5.710077486e-17
5.710076593e-17
5.710075784e-17
5.710075061e-17
5.710074423e-17
5.710073868e-17
5.710073392e-17
5.710072986e-17
5.710072643e-17
5.710072355e-17
5.710072113e-17
5.710071907e-17
5.710071731e-17
5.710071577e-17
5.710071439e-17
5.710071313e-17
5.710071195e-17
5.710071085e-17
5.710070981e-17
5.710070884e-17
5.710070795e-17
5.710070716e-17
5.710070648e-17
5.710070594e-17
5.710070554e-17
5.710070531e-17
5.710070525e-17
5.710070537e-17
5.710070568e-17
5.710070617e-17
5.710070684e-17
5.710070771e-17
5.710070878e-17
5.710071005e-17
5.710071154e-17
5.710071328e-17
5.710071527e-17
5.710071756e-17
5.710072016e-17
5.710072311e-17
5.710072644e-17
5.710073018e-17
5.710073434e-17
5.710073894e-17
5.710074399e-17
5.710074947e-17
5.710075539e-17
5.71007617e-17
5.710076837e-17
5.710077536e-17
5.710078261e-17
5.710079006e-17
5.710079763e-17
5.710080526e-17
5.710081287e-17
5.710082038e-17
5.710082771e-17
5.71008348e-17
5.710084157e-17
5.710084796e-17
5.71008539e-17
5.710085933e-17
5.71008642e-17
5.710086844e-17
5.710087202e-17
5.710087489e-17
5.710087698e-17
5.710087827e-17
5.710087871e-17
5.710087826e-17
5.710087689e-17
5.710087459e-17
5.710087133e-17
5.710086712e-17
5.710086196e-17
5.710085588e-17
5.710084894e-17
5.710084119e-17
5.710083273e-17
5.710082365e-17
5.71008141e-17
5.710080422e-17
5.710079418e-17
5.710078419e-17
5.710077443e-17
5.710076513e-17
5.71007565e-17
5.710074876e-17
5.710074209e-17
5.710073669e-17
5.710073271e-17
5.710073025e-17
5.71007294e-17
5.710073018e-17
5.71007326e-17
5.71007366e-17
5.71007421e-17
5.7100749e-17
5.710075717e-17
5.710076648e-17
5.71007768e-17
5.710078799e-17
5.710079994e-17
5.710081251e-17
5.710082557e-17
5.710083895e-17
5.710085246e-17
5.710086587e-17
5.710087892e-17
5.71008913e-17
5.710090267e-17
5.710091272e-17
5.710092117e-17
5.710092785e-17
5.710093273e-17
5.7100936e-17
5.710093809e-17
5.71009397e-17
5.710094184e-17
5.710094573e-17
5.71009528e-17
5.710096454e-17
5.710098238e-17
5.710100751e-17
5.710104073e-17
5.710108226e-17
5.710113163e-17
5.710118757e-17
5.710124798e-17
5.710131005e-17
5.710137042e-17
5.710142543e-17
5.710147149e-17
5.710150554e-17
5.710152549e-17
5.710153072e-17
5.710152249e-17
5.710150443e-17
5.710148339e-17
5.710147192e-17
5.710149702e-17
5.71016278e-17
5.710204958e-17
5.710321128e-17
5.710593348e-17
5.711064926e-17
5.711161287e-17
5.711203208e-17
5.711246923e-17
5.711292516e-17
5.71134005e-17
5.711389601e-17
5.711441253e-17
5.7114951e-17
5.711551239e-17
5.711609772e-17
5.711670805e-17
5.711734448e-17
5.711800818e-17
5.711870035e-17
5.711942225e-17
5.712017522e-17
5.712096064e-17
5.712177995e-17
5.71226347e-17
5.712352645e-17
5.712445689e-17
5.712542775e-17
5.712644086e-17
5.712749814e-17
5.71286016e-17
5.712975332e-17
5.713095551e-17
5.713221048e-17
5.713352064e-17
5.713488853e-17
5.713631679e-17
5.71378082e-17
5.713936569e-17
5.714099232e-17
5.714269128e-17
5.714446594e-17
5.714631983e-17
5.714825665e-17
5.715028029e-17
5.715239482e-17
5.715460452e-17
5.715691387e-17
5.715932761e-17
5.716185067e-17
5.716448826e-17
5.716724586e-17
5.717012919e-17
5.71731443e-17
5.717629754e-17
5.717959557e-17
5.718304541e-17
5.718665445e-17
5.719043045e-17
5.719438159e-17
5.719851648e-17
5.720284419e-17
5.720737426e-17
5.721211676e-17
5.721708229e-17
5.722228205e-17
5.722772782e-17
5.723343207e-17
5.723940793e-17
5.724566928e-17
5.725223077e-17
5.72591079e-17
5.726631705e-17
5.727387553e-17
5.728180169e-17
5.729011492e-17
5.729883578e-17
5.730798604e-17
5.731758879e-17
5.73276685e-17
5.733825117e-17
5.734936437e-17
5.736103739e-17
5.737330136e-17
5.738618939e-17
5.739973668e-17
5.74139807e-17
5.742896135e-17
5.744472113e-17
5.746130534e-17
5.747876228e-17
5.749714347e-17
5.751650391e-17
5.753690232e-17
5.755840141e-17
5.75810682e-17
5.760497434e-17
5.763019644e-17
5.765681644e-17
5.768492206e-17
5.771460714e-17
5.77459722e-17
5.777912484e-17
5.781418035e-17
5.785126221e-17
5.789050273e-17
5.793204371e-17
5.797603708e-17
5.802264569e-17
5.807204407e-17
5.812441926e-17
5.81799717e-17
5.823891621e-17
5.830148293e-17
5.836791845e-17
5.843848687e-17
5.851347104e-17
5.859317381e-17
5.867791933e-17
5.876805447e-17
5.886395028e-17
5.896600354e-17
5.907463839e-17
5.9190308e-17
5.931349638e-17
5.94447202e-17
5.958453078e-17
5.973351602e-17
5.989230257e-17
6.006155796e-17
6.024199284e-17
6.043436333e-17
6.063947342e-17
6.085817736e-17
6.109138231e-17
6.134005081e-17
6.160520352e-17
6.188792187e-17
6.218935085e-17
6.251070176e-17
6.285325504e-17
6.321836313e-17
6.360745329e-17
6.402203049e-17
6.446368028e-17
6.493407157e-17
6.543495948e-17
6.596818809e-17
6.653569313e-17
6.713950464e-17
6.778174949e-17
6.846465381e-17
6.919054537e-17
6.996185569e-17
7.078112213e-17
7.165098969e-17
7.257421274e-17
7.355365643e-17
7.459229795e-17
7.569322747e-17
7.68596489e-17
7.809488031e-17
7.940235404e-17
8.078561653e-17
8.224832777e-17
8.379426045e-17
8.542729866e-17
8.715143628e-17
8.897077495e-17
9.088952157e-17
9.291198547e-17
9.504257509e-17
9.728579422e-17
9.964623781e-17
1.021285873e-16
1.047376056e-16
1.074781313e-16
1.103550729e-16
1.133734025e-16
1.165381482e-16
1.198543875e-16
1.233272393e-16
1.269618555e-16
1.307634126e-16
1.347371029e-16
1.38888125e-16
1.432216743e-16
1.477429331e-16
1.5245706e-16
1.573691802e-16
1.624843743e-16
1.678076677e-16
1.733440193e-16
1.790983112e-16
1.850753367e-16
1.9127979e-16
1.977162543e-16
2.043891916e-16
2.113029312e-16
2.184616592e-16
2.258694082e-16
2.335300465e-16
2.414472688e-16
2.496245862e-16
2.580653171e-16
2.667725784e-16
2.757492775e-16
2.849981044e-16
2.945215244e-16
3.04321772e-16
3.144008444e-16
3.24760497e-16
3.354022385e-16
3.463273272e-16
3.575367684e-16
3.690313119e-16
3.80811451e-16
3.928774219e-16
4.052292044e-16
4.178665232e-16
4.3078885e-16
4.439954069e-16
4.574851706e-16
4.712568775e-16
4.853090296e-16
4.996399017e-16
5.142475494e-16
5.29129818e-16
5.442843523e-16
5.59708608e-16
5.75399863e-16
5.913552309e-16
6.075716743e-16
6.240460199e-16
6.407749744e-16
6.577551414e-16
6.749830391e-16
6.924551189e-16
7.10167786e-16
7.281174198e-16
7.463003959e-16
7.647131097e-16
7.833520001e-16
8.022135751e-16
8.212944385e-16
8.405913173e-16
8.601010914e-16
8.798208235e-16
8.997477911e-16
9.1987952e-16
9.402138187e-16
9.607488151e-16
9.814829945e-16
1.002415239e-15
1.023544871e-15
1.044871694e-15
1.066396041e-15
1.088118819e-15
1.110041565e-15
1.132166492e-15
1.154496547e-15
1.177035469e-15
1.19978785e-15
1.222759194e-15
1.245955989e-15
1.269385769e-15
1.293057195e-15
1.316980125e-15
1.341165696e-15
1.365626405e-15
1.390376211e-15
1.415430608e-15
1.44080672e-15
1.466523402e-15
1.492601347e-15
1.519063192e-15
1.54593363e-15
1.573239526e-15
1.601010034e-15
1.629276721e-15
1.658073693e-15
1.687437722e-15
1.71740838e-15
1.748028177e-15
1.779342698e-15
1.811400749e-15
1.84425451e-15
1.877959687e-15
1.912575666e-15
1.948165687e-15
1.984796996e-15
2.022541004e-15
2.061473461e-15
2.101674627e-15
2.143229448e-15
2.186227731e-15
2.230764324e-15
2.276939295e-15
2.324858115e-15
2.374631846e-15
2.426377323e-15
2.480217349e-15
2.536280886e-15
2.594703245e-15
2.655626289e-15
2.719198628e-15
2.785575826e-15
2.854920609e-15
2.927403075e-15
3.003200912e-15
3.082499625e-15
3.165492763e-15
3.252382161e-15
3.343378189e-15
3.438700013e-15
3.538575869e-15
3.643243348e-15
3.752949704e-15
3.86795218e-15
3.988518347e-15
4.11492648e-15
4.247465953e-15
4.386437664e-15
4.532154499e-15
4.684941826e-15
4.845138038e-15
5.013095132e-15
5.189179347e-15
5.373771848e-15
5.567269475e-15
5.770085548e-15
5.982650752e-15
6.205414087e-15
6.438843902e-15
6.683429022e-15
6.939679957e-15
7.208130224e-15
7.48933777e-15
7.783886518e-15
8.092388037e-15
8.415483358e-15
8.753844936e-15
9.108178791e-15
9.479226841e-15
9.867769456e-15
1.027462828e-14
1.070066933e-14
1.114680657e-14
1.161400582e-14
1.21032894e-14
1.261574148e-14
1.315251455e-14
1.371483722e-14
1.430402397e-14
1.492148751e-14
1.55687547e-14
1.624748752e-14
1.695951093e-14
1.770685048e-14
1.849178347e-14
1.931690916e-14
2.018524578e-14
2.110036505e-14
2.206657961e-14
2.308920481e-14
2.417492525e-14
2.533230864e-14
2.657252745e-14
2.791037286e-14
2.936568092e-14
3.096533919e-14
3.274611148e-14
3.475861543e-14
3.707292469e-14
3.978646076e-14
4.303511154e-14
4.700889779e-14
5.197404899e-14
5.83041125e-14
6.652379354e-14
7.737073679e-14
9.188259168e-14
1.115197067e-13
1.38338027e-13
1.752327264e-13
2.262814899e-13
2.972281693e-13
3.961641467e-13
5.344881173e-13
7.282578762e-13
1.000093921e-12
1.381859644e-12
1.918434139e-12
2.673021785e-12
3.734622555e-12
5.228539087e-12
7.331149839e-12
1.02906722e-11
1.445633119e-11
2.03193159e-11
2.857025466e-11
4.017981986e-11
5.651168907e-11
7.948072346e-11
1.117742634e-10
1.571614134e-10
2.209248123e-10
3.104626334e-10
4.361267423e-10
6.123878133e-10
8.594520983e-10
1.20550053e-09
1.689782945e-09
2.366883639e-09
3.312585807e-09
4.631910141e-09
6.470097171e-09
9.0275565e-09
1.258013373e-08
1.750646457e-08
2.432471424e-08
3.374165806e-08
4.6717865e-08
6.455371495e-08
8.90021208e-08
1.224151361e-07
1.679330878e-07
2.297264421e-07
3.133022194e-07
4.258883271e-07
5.769105439e-07
7.785779176e-07
1.046592848e-06
1.401001952e-06
1.867202777e-06
2.477119406e-06
3.270556848e-06
4.296739768e-06
5.6160353e-06
7.301852229e-06
9.442698876e-06
1.214436856e-05
1.553220236e-05
1.975335068e-05
2.497891269e-05
3.140577116e-05
3.925783402e-05
4.878626342e-05
6.026804643e-05
7.400197065e-05
9.030064275e-05
0.0001094765618
0.0001318191835
0.0001575427664
0.0001868082049
0.0002194233519
0.0002552781341
0.0002933385354
0.0003315699242
0.0003647965517
0.0003878656999
0.000392119928
0.0003677751446
0.0003099610756
0.0002280901089
0.0001467795476
8.588710701e-05
4.791329481e-05
2.623052387e-05
1.43188319e-05
7.711658785e-06
4.25704864e-06
2.381612136e-06
1.35209375e-06
7.662089225e-07
4.413565823e-07
2.546182483e-07
1.467142131e-07
8.360691847e-08
4.773234234e-08
2.712989213e-08
1.538113023e-08
8.722049602e-09
4.962881245e-09
2.841425272e-09
1.627948096e-09
9.443190674e-10
5.493908092e-10
3.229191399e-10
1.911056994e-10
1.13878886e-10
6.836468445e-11
4.142725016e-11
2.509455902e-11
1.520473955e-11
9.27579846e-12
5.699613467e-12
3.527807584e-12
2.19896557e-12
1.379333108e-12
8.697321041e-13
5.504076458e-13
3.491403367e-13
2.262638646e-13
1.476717108e-13
9.58431366e-14
6.254307013e-14
4.10188215e-14
2.70191686e-14
1.78607881e-14
1.183906123e-14
7.872017131e-15
5.238902758e-15
3.490522423e-15
2.327330973e-15
1.552353464e-15
1.035513384e-15
6.906189344e-16
4.604030666e-16
3.067369909e-16
2.041943009e-16
1.358001722e-16
9.021381338e-17
5.985554432e-17
3.965899577e-17
2.623832921e-17
1.733172871e-17
1.142917875e-17
7.523383783e-18
4.943047548e-18
3.241291683e-18
2.121001473e-18
1.384904662e-18
9.02213753e-19
5.863563818e-19
3.801238598e-19
2.457787125e-19
1.584741007e-19
1.018826429e-19
6.52973289e-20
4.171193001e-20
2.655218155e-20
1.683865355e-20
1.063549982e-20
6.688190421e-21
4.185941411e-21
2.606263776e-21
1.613481783e-21
9.926459779e-22
6.066090474e-22
3.682274455e-22
2.219531339e-22
1.32594568e-22
7.831302156e-23
4.557434283e-23
2.600777308e-23
1.445041822e-23
7.729935475e-24
3.907273568e-24
1.806404087e-24
6.973017842e-25
1.450228183e-25
0
0
0
0
0
0
0
0
0
0
0
0
0
0
0
0
0
0
0
0
0
0
0
0
0
0
0
0
1.239001964e-30
1.795956954e-30
1.835244483e-30
1.641602676e-30
1.367555782e-30
1.089624731e-30
8.41971753e-31
6.361500687e-31
4.724243456e-31
3.460610301e-31
2.506740544e-31
1.798871996e-31
1.280637523e-31
9.054177292e-32
6.362491383e-32
4.446687853e-32
3.09224443e-32
2.14008842e-32
1.473715417e-32
1.00853993e-32
6.847918071e-33
4.617852165e-33
3.094955035e-33
2.062694075e-33
1.367575312e-33
9.02243317e-34
5.924231531e-34
3.871893153e-34
2.518944297e-34
1.631255085e-34
1.051578872e-34
6.74910067e-35
4.315286491e-35
2.75439495e-35
1.761019155e-35
1.127704811e-35
7.231771664e-36
4.642240725e-36
2.979851022e-36
1.907537269e-36
1.213318037e-36
7.6609266e-37
4.797776313e-37
2.977078915e-37
1.82683261e-37
1.106699863e-37
6.588464455e-38
3.841200567e-38
2.175093165e-38
1.182737384e-38
6.04333003e-39
2.757171378e-39
9.717519852e-40
5.196223429e-41
0
0
0
0
0
0
0
0
0
0
0
0
0
0
0
0
0
0
3.94488793e-43
6.430498186e-43
6.316398069e-43
4.400597625e-43
3.738494071e-43
3.261659011e-43
3.024684216e-43
3.331901878e-43
4.252634025e-43
5.965190947e-43
6.53655262e-43
5.545074093e-43
3.821549641e-43
2.813232286e-43
2.370157163e-43
2.432974452e-43
1.625909291e-43
1.149819276e-43
9.07458699e-44
8.675796851e-44
6.27895354e-44
5.009985655e-44
4.275679738e-44
4.226205942e-44
4.927581779e-44
3.88354561e-44
3.237595081e-44
2.703354931e-44
2.262838971e-44
1.916707474e-44
1.646803604e-44
1.39786174e-44
1.240922902e-44
1.211820909e-44
9.458338841e-45
8.20962061e-45
6.222432814e-45
5.125951619e-45
4.928564033e-45
5.813251911e-45
4.741906494e-45
4.715141668e-45
3.233688864e-45
2.225599352e-45
1.626169781e-45
1.257136506e-45
1.087385669e-45
8.956888684e-46
8.46935232e-46
9.258941118e-46
1.141921376e-45
9.816993997e-46
8.840940596e-46
8.379909026e-46
8.871704645e-46
9.066810329e-46
6.021473221e-46
3.992690802e-46
2.666943745e-46
1.832946258e-46
1.374705968e-46
1.201250687e-46
1.231216496e-46
9.288570956e-47
7.927524713e-47
5.3435909e-47
3.676414767e-47
2.712427728e-47
2.346929731e-47
2.575937292e-47
3.003381841e-47
2.107439862e-47
1.715755575e-47
1.337148663e-47
1.204685093e-47
1.292059106e-47
1.097363222e-47
8.670323834e-48
7.846204888e-48
5.661727582e-48
4.393927172e-48
3.45963983e-48
2.710786835e-48
2.209265824e-48
1.995419339e-48
1.991668685e-48
2.286962112e-48
2.991419302e-48
3.998915996e-48
2.911070192e-48
2.359978098e-48
1.734465332e-48
1.144542358e-48
7.560588841e-49
5.043510506e-49
3.448203948e-49
2.495679353e-49
1.977957695e-49
1.704743229e-49
1.380215714e-49
1.187175401e-49
1.048422292e-49
9.730402116e-50
1.034509042e-49
1.230927362e-49
1.685143787e-49
1.478748462e-49
1.218032354e-49
1.112680077e-49
1.198403755e-49
8.16685581e-50
5.722950247e-50
4.069981909e-50
2.877641316e-50
2.09245821e-50
1.684623432e-50
1.113732465e-50
7.33763119e-51
5.235593195e-51
3.453572621e-51
2.502818863e-51
2.515152119e-51
3.664457177e-51
6.663929768e-51
8.99924728e-51
5.511431572e-51
3.940975051e-51
2.854322308e-51
2.620978521e-51
2.628899545e-51
2.982867533e-51
3.419884148e-51
4.524041924e-51
6.617660273e-51
5.668828487e-51
4.002335025e-51
3.070805621e-51
2.717116091e-51
2.748686512e-51
1.995254172e-51
1.606861575e-51
1.543349843e-51
1.451392532e-51
1.713036868e-51
1.581773618e-51
1.103352763e-51
8.348780238e-52
6.668601021e-52
6.22126784e-52
4.611705039e-52
4.046047536e-52
3.133217946e-52
2.738235096e-52
2.838086023e-52
3.494625152e-52
3.034829914e-52
2.089967736e-52
1.574874809e-52
1.420323143e-52
9.734121794e-53
7.409283994e-53
4.787102974e-53
3.081980643e-53
2.038938123e-53
1.585577706e-53
1.652960833e-53
2.229284371e-53
2.83578758e-53
2.433001416e-53
2.078040924e-53
2.006981845e-53
1.860931623e-53
1.839989093e-53
1.541249364e-53
1.566422855e-53
1.091034295e-53
8.325300912e-54
5.860369021e-54
4.20651801e-54
3.174813639e-54
2.631004713e-54
2.50063931e-54
2.746631209e-54
2.41221114e-54
2.427111244e-54
1.790636308e-54
1.394396634e-54
1.208283171e-54
1.049756545e-54
1.132986789e-54
1.407245151e-54
9.305757387e-55
6.497081464e-55
4.841382046e-55
3.732993125e-55
3.187668646e-55
3.125942987e-55
3.715416795e-55
3.15603332e-55
3.178999411e-55
3.393115692e-55
2.83573317e-55
2.767058896e-55
2.565894652e-55
2.74525135e-55
2.031342106e-55
1.738520771e-55
1.17196676e-55
8.5023095e-56
6.975873142e-56
6.899905313e-56
5.482781978e-56
3.691532942e-56
2.712227274e-56
2.025879097e-56
1.832305058e-56
2.137701268e-56
2.225466354e-56
1.633011393e-56
1.46761049e-56
1.664957894e-56
1.347812904e-56
1.074642395e-56
9.569888552e-57
9.790379766e-57
8.287971835e-57
7.140398798e-57
7.108310325e-57
7.879663534e-57
7.468333103e-57
6.079470804e-57
5.354498735e-57
4.468838163e-57
4.332869178e-57
3.546336462e-57
3.308506338e-57
2.401628752e-57
1.867240618e-57
1.576139462e-57
1.250114284e-57
1.048373858e-57
9.810837311e-58
8.58426981e-58
7.168341982e-58
6.427146909e-58
6.363768102e-58
6.825623108e-58
5.696334745e-58
4.386303532e-58
3.804278211e-58
3.966100496e-58
3.08489422e-58
2.662534715e-58
2.621421091e-58
2.157214443e-58
1.86803797e-58
1.532305931e-58
1.384697258e-58
1.488838551e-58
1.449881529e-58
1.318543522e-58
1.13420326e-58
1.103867491e-58
1.098169998e-58
1.109090877e-58
1.021726265e-58
9.6990284e-59
8.283655733e-59
7.373701325e-59
7.181882327e-59
7.013283876e-59
6.94216043e-59
6.540107004e-59
6.254944925e-59
6.07617654e-59
6.19373972e-59
5.82551623e-59
5.439052937e-59
5.059417294e-59
4.846128193e-59
4.525002387e-59
4.301036381e-59
4.114395264e-59
3.813265256e-59
3.619503997e-59
3.500803218e-59
3.345450777e-59
3.176856324e-59
2.965186069e-59
2.805771509e-59
2.653338102e-59
2.535011205e-59
2.416454842e-59
2.315074088e-59
2.193617636e-59
2.087365898e-59
1.993784577e-59
1.907869749e-59
1.812963503e-59
1.722571007e-59
1.646541191e-59
1.575472609e-59
1.500826991e-59
1.429927953e-59
1.356928147e-59
1.284469891e-59
1.209488319e-59
1.14898324e-59
1.091029461e-59
1.038116031e-59
9.875300787e-60
9.424323406e-60
8.992302733e-60
8.570595021e-60
8.162247959e-60
7.756865531e-60
7.369762799e-60
6.98608845e-60
6.624275658e-60
6.284847303e-60
5.977372454e-60
5.687499693e-60
5.407473283e-60
5.126132176e-60
4.87420905e-60
4.634836729e-60
4.409342397e-60
4.18837097e-60
3.985087e-60
3.795882509e-60
3.615430521e-60
3.448138937e-60
3.277023208e-60
3.112170582e-60
2.954929562e-60
2.810697334e-60
2.67061041e-60
2.532558397e-60
2.408817398e-60
2.285903635e-60
2.165607163e-60
2.052388142e-60
1.950755393e-60
1.857503765e-60
1.10647772e-60
5.650134615e-61
2.893342355e-61
1.404320342e-61
6.677285814e-62
3.390422642e-62
1.771885752e-62
9.182667632e-63
4.52017023e-63
2.416044482e-63
9.280076258e-64
4.488934304e-64
3.499700719e-64
1.73736818e-64
6.965271147e-65
1.903100341e-65
3.382869895e-66
6.931122843e-66
8.060452297e-66
5.176443605e-67
1.146901902e-66
7.308526042e-68
6.202065441e-67
9.204235887e-68
2.041578686e-67
1.201424602e-67
2.536684578e-68
1.705036881e-68
3.335273164e-69
5.927798127e-70
0
1.161483903e-69
5.646526861e-70
1.487321849e-71
0
3.654753481e-70
1.629492731e-70
7.881497514e-72
3.378932996e-72
1.19248806e-70
1.799187798e-71
5.298068819e-71
3.259140977e-71
0
0
7.264656198e-72
2.636760261e-73
0
3.345043744e-72
0
2.058159948e-72
7.630311124e-73
1.865490597e-74
0
1.172324596e-72
7.105684284e-75
0
1.589080298e-73
1.165958674e-73
2.393977496e-74
5.564994014e-75
2.954678742e-74
0
1.531011342e-77
5.109522941e-75
8.824929756e-76
2.249357566e-77
0
3.367980329e-77
4.439874859e-77
5.896264192e-77
0
7.589179239e-78
1.845959765e-76
6.20284052e-77
2.544815066e-77
2.626242974e-77
7.748666579e-78
1.345211504e-78
8.738762582e-79
9.528301318e-78
1.484796636e-78
9.882880086e-79
0
0
1.238796373e-81
9.022420331e-80
1.49386661e-80
5.66369864e-80
0
0
9.386767836e-82
0
2.18551643e-82
2.132197772e-81
1.131590499e-81
3.030469339e-82
4.036771313e-82
8.93418852e-83
3.237551676e-85
6.553518195e-86
7.715949313e-84
5.27030853e-84
4.022834898e-84
0
0
0
7.819955822e-86
1.374587637e-84
8.792744055e-85
2.288625139e-86
0
0
1.519880386e-84
0
2.863278227e-87
3.218291025e-85
0
1.258782511e-85
1.096270903e-85
4.465822966e-85
1.890672719e-86
6.894811249e-86
3.733997548e-86
2.026282237e-85
0
2.983534668e-85
8.240946224e-86
1.626787458e-86
0
1.099215153e-85
0
0
2.265715134e-85
4.558316035e-85
2.054281984e-85
1.291988022e-86
3.689153551e-85
0
7.778569712e-85
5.169804744e-86
9.723359755e-85
1.870709089e-86
0
1.280473885e-85
1.050678186e-84
1.846191485e-84
6.451943242e-85
2.339765744e-86
4.930898504e-86
0
6.518852895e-85
7.456938245e-86
1.745217351e-84
2.679066132e-85
1.551244434e-84
1.144362695e-84
2.952695169e-84
1.117921859e-84
1.732402052e-84
9.969952568e-86
3.871473064e-84
2.823641602e-84
3.422200431e-86
2.447021985e-84
1.705324111e-84
1.361713104e-84
1.556987821e-84
0
1.959850825e-84
1.294604375e-84
1.448936917e-84
4.110996862e-84
0
3.940584967e-84
4.140412697e-85
6.992516523e-85
7.603218094e-85
9.801930724e-85
0
8.100905243e-85
1.220547595e-86
1.212609094e-84
7.855251768e-85
2.488942295e-84
0
1.153045095e-87
9.995742143e-85
0
6.541213297e-84
1.7540921e-84
3.52028242e-84
2.951357111e-86
1.884227549e-84
0
3.163065855e-84
2.687860939e-84
4.473010214e-85
1.181201223e-86
2.534239031e-84
8.305857001e-85
4.667384163e-87
4.250361542e-85
1.471676668e-84
1.074903177e-84
1.194298018e-84
1.258214122e-86
9.538497075e-85
1.213159158e-85
1.014559507e-84
0
0
1.462307551e-84
1.295077771e-85
2.19516161e-84
1.305558109e-84
4.081608034e-86
3.082519132e-85
0
6.370699257e-86
4.303486981e-85
3.862089637e-85
3.110166514e-85
7.15391869e-85
0
4.371198792e-85
3.319817941e-85
6.329193489e-86
0
3.47720844e-85
0
0
1.768453371e-85
1.261497593e-85
0
0
6.061106164e-85
1.47074695e-85
3.971370673e-85
0
4.192218882e-88
5.646687992e-85
1.064193125e-84
0
5.700455099e-85
1.838484516e-85
0
3.299628914e-87
0
2.370126312e-84
)
;

boundaryField
{
    inlet
    {
        type            fixedValue;
        value           uniform 0;
    }
    outlet
    {
        type            zeroGradient;
    }
    wall
    {
        type            empty;
    }
}


// ************************************************************************* //
