/*--------------------------------*- C++ -*----------------------------------*\
  =========                 |
  \\      /  F ield         | OpenFOAM: The Open Source CFD Toolbox
   \\    /   O peration     | Website:  https://openfoam.org
    \\  /    A nd           | Version:  7
     \\/     M anipulation  |
\*---------------------------------------------------------------------------*/
FoamFile
{
    version     2.0;
    format      ascii;
    class       volScalarField;
    location    "0.000558243009";
    object      C7H15;
}
// * * * * * * * * * * * * * * * * * * * * * * * * * * * * * * * * * * * * * //

dimensions      [0 0 0 0 0 0 0];

internalField   nonuniform List<scalar> 
1500
(
5.896306025e-26
2.13053635e-25
3.946776351e-25
5.310655802e-25
6.091691326e-25
6.471885266e-25
6.637230694e-25
6.702229326e-25
6.72514367e-25
6.732116416e-25
6.733574813e-25
6.733237125e-25
6.732338444e-25
6.731301955e-25
6.730301056e-25
6.729416872e-25
6.728680722e-25
6.728092289e-25
6.727634146e-25
6.72728376e-25
6.727021219e-25
6.72683233e-25
6.726708138e-25
6.726642576e-25
6.726629841e-25
6.726662566e-25
6.726731192e-25
6.726824425e-25
6.72693035e-25
6.727037709e-25
6.727136968e-25
6.727220938e-25
6.727284932e-25
6.727326545e-25
6.727345233e-25
6.727341824e-25
6.727318086e-25
6.727276383e-25
6.727219431e-25
6.727150146e-25
6.727071528e-25
6.726986552e-25
6.72689805e-25
6.726808578e-25
6.726720285e-25
6.726634822e-25
6.726553285e-25
6.726476224e-25
6.726403708e-25
6.726335424e-25
6.726270814e-25
6.726209213e-25
6.726149976e-25
6.726092588e-25
6.726036735e-25
6.725982347e-25
6.725929615e-25
6.725878977e-25
6.725831087e-25
6.725786771e-25
6.725746976e-25
6.72571272e-25
6.72568504e-25
6.725664939e-25
6.725653341e-25
6.725651045e-25
6.72565868e-25
6.725676669e-25
6.725705195e-25
6.725744181e-25
6.725793274e-25
6.725851842e-25
6.72591898e-25
6.725993532e-25
6.726074121e-25
6.726159188e-25
6.726247039e-25
6.726335898e-25
6.726423957e-25
6.726509432e-25
6.726590612e-25
6.726665905e-25
6.726733876e-25
6.726793286e-25
6.72684311e-25
6.726882559e-25
6.726911091e-25
6.726928407e-25
6.726934454e-25
6.726929411e-25
6.726913679e-25
6.726887861e-25
6.726852748e-25
6.726809287e-25
6.72675856e-25
6.726701749e-25
6.726640108e-25
6.726574928e-25
6.7265075e-25
6.726439079e-25
6.726370855e-25
6.726303911e-25
6.726239203e-25
6.726177524e-25
6.726119491e-25
6.726065531e-25
6.726015872e-25
6.725970549e-25
6.725929417e-25
6.725892168e-25
6.72585836e-25
6.725827449e-25
6.725798828e-25
6.725771861e-25
6.725745925e-25
6.725720445e-25
6.725694921e-25
6.725668957e-25
6.725642275e-25
6.725614723e-25
6.725586277e-25
6.725557031e-25
6.725527186e-25
6.725497028e-25
6.72546691e-25
6.725437223e-25
6.725408377e-25
6.725380776e-25
6.725354808e-25
6.725330824e-25
6.725309136e-25
6.725290012e-25
6.725273678e-25
6.725260327e-25
6.725250121e-25
6.725243207e-25
6.725239724e-25
6.725239811e-25
6.725243614e-25
6.725251289e-25
6.725263003e-25
6.725278925e-25
6.725299223e-25
6.725324051e-25
6.725353536e-25
6.725387763e-25
6.725426763e-25
6.725470497e-25
6.725518848e-25
6.725571611e-25
6.725628491e-25
6.725689102e-25
6.725752973e-25
6.725819555e-25
6.725888234e-25
6.72595835e-25
6.726029209e-25
6.726100106e-25
6.726170338e-25
6.726239226e-25
6.726306127e-25
6.726370444e-25
6.726431636e-25
6.72648922e-25
6.726542772e-25
6.726591923e-25
6.726636354e-25
6.726675788e-25
6.726709985e-25
6.72673873e-25
6.726761831e-25
6.726779113e-25
6.726790423e-25
6.726795625e-25
6.726794613e-25
6.726787319e-25
6.726773723e-25
6.726753871e-25
6.726727888e-25
6.726696002e-25
6.726658556e-25
6.726616029e-25
6.726569051e-25
6.726518418e-25
6.726465098e-25
6.726410226e-25
6.726355101e-25
6.726301159e-25
6.726249937e-25
6.726203024e-25
6.726161999e-25
6.726128358e-25
6.726103447e-25
6.726088382e-25
6.726084e-25
6.726090813e-25
6.726109e-25
6.726138423e-25
6.726178675e-25
6.726229155e-25
6.726289155e-25
6.726357952e-25
6.726434881e-25
6.726519376e-25
6.726610964e-25
6.726709197e-25
6.726813528e-25
6.72692314e-25
6.727036752e-25
6.727152429e-25
6.72726745e-25
6.727378272e-25
6.727480628e-25
6.727569804e-25
6.727641094e-25
6.72769042e-25
6.727715083e-25
6.727714559e-25
6.727691239e-25
6.727651008e-25
6.727603511e-25
6.727562006e-25
6.727542714e-25
6.72756362e-25
6.727642749e-25
6.727796018e-25
6.728034822e-25
6.728363621e-25
6.728777808e-25
6.729262202e-25
6.72979049e-25
6.730325899e-25
6.730823302e-25
6.731232822e-25
6.731504842e-25
6.731596148e-25
6.731476751e-25
6.731136767e-25
6.730592658e-25
6.729892127e-25
6.729117181e-25
6.7283852e-25
6.727848614e-25
6.727694255e-25
6.728143837e-25
6.729454206e-25
6.731908903e-25
6.735769727e-25
6.741114272e-25
6.747376778e-25
6.749886137e-25
6.750567862e-25
6.751220716e-25
6.751884954e-25
6.752566168e-25
6.75326547e-25
6.753983476e-25
6.754720807e-25
6.755478143e-25
6.75625622e-25
6.75705582e-25
6.757877765e-25
6.758722918e-25
6.759592181e-25
6.760486502e-25
6.761406875e-25
6.762354341e-25
6.763329997e-25
6.764334995e-25
6.765370545e-25
6.766437918e-25
6.76753845e-25
6.768673547e-25
6.769844682e-25
6.771053404e-25
6.77230134e-25
6.773590198e-25
6.774921771e-25
6.776297939e-25
6.777720679e-25
6.779192062e-25
6.78071426e-25
6.782289555e-25
6.783920337e-25
6.78560911e-25
6.787358502e-25
6.789171266e-25
6.791050285e-25
6.792998579e-25
6.795019312e-25
6.797115795e-25
6.799291495e-25
6.801550037e-25
6.803895216e-25
6.806331001e-25
6.80886154e-25
6.811491171e-25
6.814224427e-25
6.817066042e-25
6.820020963e-25
6.823094353e-25
6.826291605e-25
6.829618342e-25
6.833080435e-25
6.836684005e-25
6.840435433e-25
6.844341372e-25
6.848408755e-25
6.852644801e-25
6.857057032e-25
6.861653275e-25
6.866441678e-25
6.87143072e-25
6.876629215e-25
6.882046333e-25
6.887691601e-25
6.893574921e-25
6.899706579e-25
6.906097254e-25
6.912758035e-25
6.919700425e-25
6.926936361e-25
6.934478222e-25
6.942338839e-25
6.95053151e-25
6.959070015e-25
6.967968621e-25
6.977242102e-25
6.986905745e-25
6.996975369e-25
7.007467333e-25
7.018398549e-25
7.029786498e-25
7.04164924e-25
7.054005425e-25
7.066874309e-25
7.080275767e-25
7.0942303e-25
7.108759055e-25
7.12388383e-25
7.139627091e-25
7.156011982e-25
7.173062339e-25
7.190802697e-25
7.209258307e-25
7.228455144e-25
7.248419916e-25
7.26918008e-25
7.290763848e-25
7.313200201e-25
7.336518893e-25
7.360750465e-25
7.385926254e-25
7.412078397e-25
7.439239846e-25
7.467444368e-25
7.496726559e-25
7.527121848e-25
7.5586665e-25
7.591397628e-25
7.625353192e-25
7.660572008e-25
7.697093749e-25
7.73495895e-25
7.774209009e-25
7.814886193e-25
7.857033632e-25
7.900695327e-25
7.945916146e-25
7.992741824e-25
8.041218963e-25
8.091395027e-25
8.143318342e-25
8.197038089e-25
8.252604305e-25
8.31006787e-25
8.369480511e-25
8.430894785e-25
8.494364079e-25
8.5599426e-25
8.627685365e-25
8.697648191e-25
8.769887689e-25
8.844461246e-25
8.921427022e-25
9.00084393e-25
9.082771627e-25
9.167270502e-25
9.254401659e-25
9.344226902e-25
9.436808724e-25
9.532210289e-25
9.630495414e-25
9.731728559e-25
9.835974804e-25
9.943299836e-25
1.005376993e-24
1.016745194e-24
1.028441326e-24
1.040472184e-24
1.052844613e-24
1.065565511e-24
1.078641822e-24
1.092080539e-24
1.1058887e-24
1.120073386e-24
1.134641723e-24
1.149600874e-24
1.164958046e-24
1.180720482e-24
1.196895462e-24
1.213490303e-24
1.230512359e-24
1.247969015e-24
1.265867692e-24
1.284215846e-24
1.303020963e-24
1.322290564e-24
1.342032202e-24
1.362253465e-24
1.382961973e-24
1.404165383e-24
1.425871386e-24
1.44808771e-24
1.470822122e-24
1.494082431e-24
1.517876487e-24
1.542212186e-24
1.567097473e-24
1.592540342e-24
1.618548846e-24
1.645131095e-24
1.672295262e-24
1.700049591e-24
1.728402399e-24
1.757362084e-24
1.786937127e-24
1.817136108e-24
1.847967703e-24
1.879440698e-24
1.911563998e-24
1.944346632e-24
1.977797766e-24
2.011926714e-24
2.046742944e-24
2.082256097e-24
2.118475993e-24
2.155412648e-24
2.193076286e-24
2.231477353e-24
2.270626534e-24
2.31053477e-24
2.351213271e-24
2.392673537e-24
2.434927375e-24
2.477986921e-24
2.521864657e-24
2.566573432e-24
2.612126491e-24
2.658537488e-24
2.705820519e-24
2.753990141e-24
2.803061403e-24
2.85304987e-24
2.903971652e-24
2.955843435e-24
3.00868251e-24
3.062506805e-24
3.11733492e-24
3.173186158e-24
3.230080562e-24
3.288038954e-24
3.347082968e-24
3.407235096e-24
3.468518722e-24
3.53095817e-24
3.594578745e-24
3.659406777e-24
3.725469674e-24
3.792795961e-24
3.861415341e-24
3.931358739e-24
4.002658357e-24
4.075347733e-24
4.149461797e-24
4.22503693e-24
4.302111025e-24
4.380723554e-24
4.460915631e-24
4.542730082e-24
4.626211519e-24
4.711406407e-24
4.798363149e-24
4.88713216e-24
4.97776595e-24
5.070319215e-24
5.164848921e-24
5.261414401e-24
5.360077451e-24
5.460902434e-24
5.563956382e-24
5.669309112e-24
5.777033343e-24
5.887204812e-24
5.999902412e-24
6.11520832e-24
6.233208146e-24
6.353991078e-24
6.477650046e-24
6.604281883e-24
6.733987447e-24
6.866871337e-24
7.003039353e-24
7.142591996e-24
7.285660535e-24
7.432368142e-24
7.582836419e-24
7.737220754e-24
7.895666846e-24
8.058323828e-24
8.225347372e-24
8.396900126e-24
8.573152249e-24
8.754281904e-24
8.940475672e-24
9.131928978e-24
9.328846504e-24
9.531437026e-24
9.73989369e-24
9.954478211e-24
1.017544389e-23
1.040304915e-23
1.063755223e-23
1.087924437e-23
1.11284471e-23
1.138549269e-23
1.165072959e-23
1.192452696e-23
1.220727718e-23
1.24993982e-23
1.280133586e-23
1.311356659e-23
1.343660031e-23
1.377098377e-23
1.411730416e-23
1.447619328e-23
1.484833208e-23
1.523445585e-23
1.563535997e-23
1.605190633e-23
1.648503063e-23
1.693575046e-23
1.740517444e-23
1.789451244e-23
1.840508709e-23
1.89383467e-23
1.949587979e-23
2.007943142e-23
2.06909216e-23
2.133246595e-23
2.200639903e-23
2.271530056e-23
2.3462025e-23
2.424973489e-23
2.508193846e-23
2.596253201e-23
2.689584782e-23
2.788670823e-23
2.894048672e-23
3.0063177e-23
3.126147115e-23
3.254284817e-23
3.391567418e-23
3.538931624e-23
3.697427139e-23
3.868231354e-23
4.05266605e-23
4.252216461e-23
4.468553026e-23
4.703556311e-23
4.959345586e-23
5.238311709e-23
5.543155084e-23
5.876929619e-23
6.243093852e-23
6.645570681e-23
7.088817498e-23
7.577909011e-23
8.118635656e-23
8.717621323e-23
9.382465198e-23
1.012191399e-22
1.094607268e-22
1.186666464e-22
1.289735515e-22
1.405415739e-22
1.53559458e-22
1.682511055e-22
1.848839794e-22
2.037799743e-22
2.253295649e-22
2.500103343e-22
2.784113674e-22
3.11265522e-22
3.494923036e-22
3.942550467e-22
4.470374261e-22
5.097461302e-22
5.848489847e-22
6.755611683e-22
7.860967299e-22
9.220088459e-22
1.090650755e-21
1.301800896e-21
1.568511584e-21
1.908262155e-21
2.344526921e-21
2.908908533e-21
3.644042171e-21
4.607550969e-21
5.877435395e-21
7.559419144e-21
9.7969651e-21
1.278493599e-20
1.678823122e-20
2.216721944e-20
2.941245378e-20
3.919207046e-20
5.241652194e-20
7.032700897e-20
9.461632405e-20
1.275940385e-19
1.724123854e-19
2.333752603e-19
3.163611082e-19
4.294019522e-19
5.834766437e-19
7.935982533e-19
1.080305687e-18
1.471711366e-18
2.00631467e-18
2.736871258e-18
3.735720219e-18
5.102127126e-18
6.972419337e-18
9.53399597e-18
1.304472549e-17
1.785985105e-17
2.446938294e-17
3.355017743e-17
4.603864036e-17
6.323248086e-17
8.693351119e-17
1.196486349e-16
1.648736133e-16
2.274950164e-16
3.143615459e-16
4.350990096e-16
6.032771737e-16
8.38086757e-16
1.166758879e-15
1.628069121e-15
2.27743179e-15
3.194333609e-15
4.493219941e-15
6.339490405e-15
8.973074421e-15
1.274327322e-14
1.81603716e-14
2.597223133e-14
3.727810737e-14
5.36979037e-14
7.762392122e-14
1.12595175e-13
1.638535227e-13
2.391690415e-13
3.50063714e-13
5.13624418e-13
7.551897321e-13
1.112339338e-12
1.64084381e-12
2.423608297e-12
3.584282051e-12
5.308329622e-12
7.876415581e-12
1.171890311e-11
1.750838301e-11
2.63254213e-11
3.997845327e-11
6.168536e-11
9.769895475e-11
1.615927893e-10
2.863182556e-10
5.589751329e-10
1.220387287e-09
2.942292501e-09
7.567153931e-09
1.997679281e-08
5.259596043e-08
1.351439115e-07
3.362229263e-07
8.013192154e-07
1.81670189e-06
3.819684017e-06
7.462940509e-06
1.333933882e-05
2.132083001e-05
2.958513458e-05
3.469274461e-05
3.435170151e-05
3.018932229e-05
2.509293101e-05
2.048220458e-05
1.669260454e-05
1.364307954e-05
1.136440172e-05
9.581095022e-06
8.10860168e-06
6.782562994e-06
5.583730547e-06
4.461910944e-06
3.438556153e-06
2.54181056e-06
1.808138655e-06
1.232182578e-06
8.065786854e-07
5.102662401e-07
3.152322557e-07
1.919832777e-07
1.154508822e-07
6.95212068e-08
4.175257388e-08
2.519750308e-08
1.524455729e-08
9.247493838e-09
5.62692609e-09
3.440013861e-09
2.093538831e-09
1.268388708e-09
7.695637849e-10
4.677073852e-10
2.84775713e-10
1.737130544e-10
1.061349581e-10
6.491700574e-11
3.970865757e-11
2.426755336e-11
1.510820984e-11
9.455947657e-12
5.879474012e-12
3.674724475e-12
2.30994324e-12
1.460769441e-12
9.294383312e-13
5.95021929e-13
3.837139763e-13
2.488543507e-13
1.624263095e-13
1.066857067e-13
7.050542526e-14
4.68699366e-14
3.133102416e-14
2.105159382e-14
1.421095074e-14
9.633192299e-15
6.553884552e-15
4.472803719e-15
3.060476048e-15
2.098510521e-15
1.44126574e-15
9.91061272e-16
6.82039347e-16
4.69587278e-16
3.233574356e-16
2.226312101e-16
1.532206078e-16
1.053854076e-16
7.242554179e-17
4.97252547e-17
3.410131786e-17
2.335698064e-17
1.597579892e-17
1.091096465e-17
7.440071672e-18
5.064851783e-18
3.441889854e-18
2.334719647e-18
1.580695806e-18
1.068086939e-18
7.202424426e-19
4.846556011e-19
3.254151637e-19
2.180009038e-19
1.456994988e-19
9.713948302e-20
6.459822816e-20
4.284082374e-20
2.832481117e-20
1.865598762e-20
1.224350744e-20
8.007503197e-21
5.219581351e-21
3.391160492e-21
2.196130917e-21
1.417801727e-21
9.128024307e-22
5.866957684e-22
3.773395903e-22
2.426108221e-22
1.557348591e-22
9.97482355e-23
6.370673261e-23
4.05421323e-23
2.568630907e-23
1.618600376e-23
1.013216266e-23
6.291424199e-24
3.86780293e-24
2.348400361e-24
1.40344165e-24
8.214874301e-25
4.674470225e-25
2.553834218e-25
1.309176359e-25
5.986239791e-26
2.089651609e-26
8.580375426e-28
0
0
0
0
0
0
0
0
0
0
0
0
0
0
0
0
0
0
0
0
0
0
0
0
0
0
0
0
0
4.346579163e-33
4.465734816e-32
5.812521624e-32
5.79437399e-32
5.158637426e-32
4.31157676e-32
3.460462057e-32
2.699749163e-32
2.062464457e-32
1.550193976e-32
1.150099255e-32
8.441979429e-33
6.141282751e-33
4.4334888e-33
3.179375234e-33
2.266684406e-33
1.607545513e-33
1.134659551e-33
7.973385677e-34
5.579100841e-34
3.886798037e-34
2.694829042e-34
1.855933613e-34
1.269966263e-34
8.640073347e-35
5.847411404e-35
3.938233029e-35
2.640327587e-35
1.762481484e-35
1.171557351e-35
7.755570096e-36
5.113242872e-36
3.357579707e-36
2.196029204e-36
1.430763198e-36
9.29275105e-37
6.027333141e-37
3.913858757e-37
2.544356351e-37
1.655456558e-37
1.076725242e-37
6.986054858e-38
4.512864087e-38
2.902625296e-38
1.852441468e-38
1.174292373e-38
7.390174892e-39
4.617871378e-39
2.847840996e-39
1.738107944e-39
1.045698815e-39
6.144100546e-40
3.500380905e-40
1.893858305e-40
9.534815532e-41
4.180717344e-41
1.295882905e-41
0
0
0
0
0
0
0
0
0
0
0
0
0
0
3.556391379e-44
1.113313594e-43
2.055694004e-43
3.341760592e-43
2.815857945e-43
2.513401009e-43
2.192010581e-43
1.905493507e-43
1.668315983e-43
1.471515522e-43
1.277950125e-43
1.154057765e-43
1.135707627e-43
8.984882526e-44
7.822681679e-44
6.016866442e-44
5.002275477e-44
4.787288752e-44
5.522023865e-44
4.538972677e-44
4.468563208e-44
3.12160312e-44
2.178417015e-44
1.604546848e-44
1.246289697e-44
1.072487253e-44
8.858601346e-45
8.300228361e-45
8.898553364e-45
1.070478795e-44
9.233922971e-45
8.331934267e-45
7.905813916e-45
8.315952237e-45
8.445898458e-45
5.704058904e-45
3.848624204e-45
2.616455922e-45
1.82714394e-45
1.378541399e-45
1.189430086e-45
1.187808988e-45
9.010024543e-46
7.631663637e-46
5.224997166e-46
3.653316707e-46
2.727531251e-46
2.351046496e-46
2.51254587e-46
2.849882662e-46
2.032385119e-46
1.661186949e-46
1.299871645e-46
1.162383651e-46
1.222518555e-46
1.039640367e-46
8.279536542e-47
7.476939068e-47
5.44929733e-47
4.23430016e-47
3.33989941e-47
2.634685765e-47
2.163584146e-47
1.957063321e-47
1.949742494e-47
2.215103401e-47
2.84550719e-47
3.727713199e-47
2.751704215e-47
2.242464252e-47
1.673608062e-47
1.122434423e-47
7.542050853e-48
5.120250965e-48
3.56148446e-48
2.61230599e-48
2.083116688e-48
1.804381376e-48
1.447990492e-48
1.231796539e-48
1.084010187e-48
1.003982409e-48
1.052869449e-48
1.231998e-48
1.646459854e-48
1.437679662e-48
1.178730942e-48
1.06464367e-48
1.120024604e-48
7.742779021e-49
5.482134693e-49
3.916336998e-49
2.781388505e-49
2.01998006e-49
1.604035192e-49
1.125734719e-49
8.417154549e-50
7.507874592e-50
5.500725829e-50
4.672033179e-50
4.046648002e-50
4.779619975e-50
7.448401346e-50
9.456241577e-50
6.310842265e-50
5.175780838e-50
4.365851897e-50
4.265543751e-50
4.100249916e-50
4.650398742e-50
4.698925563e-50
5.651865162e-50
7.273498842e-50
6.223554841e-50
4.499991765e-50
3.518711094e-50
3.144984106e-50
3.034438098e-50
2.424836419e-50
1.950072172e-50
1.762920937e-50
1.602149946e-50
1.760877812e-50
1.616107912e-50
1.249848318e-50
1.055682959e-50
8.895202165e-51
8.632866011e-51
6.839185984e-51
6.342324575e-51
5.199353529e-51
4.909489755e-51
4.97678627e-51
5.750839238e-51
5.360819219e-51
4.361518084e-51
4.010253175e-51
3.803399732e-51
3.272930893e-51
2.795907682e-51
2.414320721e-51
1.991578539e-51
1.726015634e-51
1.545908513e-51
1.530590237e-51
1.628591994e-51
1.690799403e-51
1.630886627e-51
1.570273067e-51
1.505563644e-51
1.43849156e-51
1.364873005e-51
1.244993928e-51
1.216290313e-51
1.122292671e-51
1.058140706e-51
9.885420724e-52
9.366986372e-52
8.769315524e-52
8.355231148e-52
7.942691306e-52
7.610638945e-52
7.206252686e-52
6.911637812e-52
6.54332974e-52
6.256541773e-52
5.969820496e-52
5.647877555e-52
5.347616731e-52
5.070014194e-52
4.774796931e-52
4.504927747e-52
4.243076448e-52
4.019072702e-52
3.830388125e-52
3.639844262e-52
3.470098242e-52
3.294047387e-52
3.128596662e-52
2.969925756e-52
2.807287559e-52
2.669248346e-52
2.533522912e-52
2.410236586e-52
2.285194401e-52
2.16876216e-52
2.054135249e-52
1.946795075e-52
1.848914021e-52
1.756514422e-52
1.668344355e-52
1.58377623e-52
1.50330644e-52
1.426507089e-52
1.353961043e-52
1.286160133e-52
1.221477685e-52
1.159240055e-52
1.1001512e-52
1.04455341e-52
9.917466717e-53
9.411298142e-53
8.942480391e-53
8.496418755e-53
8.06980616e-53
7.663100002e-53
7.280556499e-53
6.91544427e-53
6.570156988e-53
6.24370387e-53
5.929915651e-53
5.633939852e-53
5.350916773e-53
5.082161411e-53
4.827230529e-53
4.585021965e-53
4.353871398e-53
4.134228122e-53
3.923564433e-53
3.726659618e-53
3.542335097e-53
3.365777034e-53
3.197583772e-53
3.038142581e-53
2.887153891e-53
2.74507624e-53
2.609162068e-53
2.47972508e-53
2.356180319e-53
2.238820725e-53
2.12883961e-53
2.023388388e-53
1.923244812e-53
1.827575194e-53
1.736425912e-53
1.650298982e-53
1.568453348e-53
1.49036726e-53
1.417603543e-53
1.348218026e-53
1.281326948e-53
1.217924693e-53
1.157923728e-53
1.100554695e-53
1.046058027e-53
9.949541817e-54
9.459602097e-54
8.988749347e-54
8.541465812e-54
8.123599963e-54
7.731318802e-54
7.352732517e-54
6.994712209e-54
6.651014924e-54
6.329013255e-54
6.015161172e-54
5.718188767e-54
5.437544974e-54
5.168171071e-54
4.915543383e-54
4.672193845e-54
4.445946452e-54
4.22708629e-54
4.020964957e-54
3.822559308e-54
3.629236335e-54
3.449618347e-54
3.277132446e-54
3.113089342e-54
2.957306004e-54
2.815705562e-54
2.677550155e-54
2.549243273e-54
2.427951804e-54
2.310130404e-54
2.196166449e-54
2.091640569e-54
1.988220357e-54
1.891075231e-54
1.80151461e-54
1.71472431e-54
1.630364166e-54
1.552328524e-54
1.476336877e-54
1.403871103e-54
1.332061952e-54
1.267155539e-54
1.204877384e-54
1.145908648e-54
1.090357956e-54
1.038682285e-54
9.901480715e-55
9.429583821e-55
8.984001535e-55
8.534162016e-55
8.097774912e-55
7.684566695e-55
7.298742728e-55
6.937311123e-55
6.609133978e-55
6.292037659e-55
5.980627825e-55
5.673303911e-55
5.394583091e-55
5.132514168e-55
4.883400958e-55
4.638297318e-55
4.410840553e-55
4.200146551e-55
4.000816426e-55
3.816562721e-55
3.629360095e-55
3.447938294e-55
3.275920454e-55
3.116421663e-55
2.961952475e-55
2.80990018e-55
2.672968453e-55
2.537407933e-55
2.404939727e-55
2.280456324e-55
2.167940062e-55
2.06439843e-55
1.232892158e-55
6.317009496e-56
3.247619182e-56
1.582474232e-56
7.554488281e-57
3.850438255e-57
2.020273015e-57
1.051433387e-57
5.197930024e-58
2.78914022e-58
1.077253714e-58
5.233873328e-59
4.094651822e-59
2.043739559e-59
8.240803897e-60
2.267113875e-60
4.074930316e-61
8.325468497e-61
9.743281136e-61
6.404615062e-62
1.402485218e-61
9.286971996e-63
7.699850497e-62
1.160697721e-62
2.577362757e-62
1.529935852e-62
3.267421673e-63
2.21021676e-63
4.372676622e-64
7.864280546e-65
0
1.563753582e-64
7.720224509e-65
2.102931594e-66
0
5.171281589e-65
2.334519941e-65
1.164915346e-66
5.148537068e-67
1.77937738e-65
2.737021986e-66
8.137599848e-66
5.078507774e-66
0
0
1.183352579e-66
4.371966996e-68
0
5.699635326e-67
0
3.624411743e-67
1.366245231e-67
3.415153309e-69
0
2.192745717e-67
1.429354823e-69
0
3.102858663e-68
2.307523197e-68
4.803416181e-69
1.137481922e-69
6.067332481e-69
0
3.893604251e-72
1.083942365e-69
1.894110839e-70
4.952476673e-72
0
7.419247267e-72
9.832525504e-72
1.316055697e-71
0
1.740619395e-72
4.193502642e-71
1.418408461e-71
5.843428113e-72
6.047788331e-72
1.792639053e-72
3.126273816e-73
2.043319914e-73
2.221261374e-72
3.477467822e-73
2.313274769e-73
0
0
2.912925749e-76
2.121135735e-74
3.543121132e-75
1.334542095e-74
0
0
2.209834869e-76
0
5.183914127e-77
5.036359722e-76
2.675605579e-76
7.173710344e-77
9.539632443e-77
2.114397161e-77
8.498669173e-80
1.703258348e-80
1.822492656e-78
1.246290424e-78
9.511622192e-79
0
0
0
1.868586294e-80
3.249037075e-79
2.078012736e-79
5.539784175e-81
0
0
3.591885555e-79
0
7.259471175e-82
7.604267595e-80
0
2.9767858e-80
2.595384616e-80
1.056121251e-79
4.499577679e-81
1.629274275e-80
8.820979806e-81
4.794864761e-80
0
7.051808495e-80
1.950012017e-80
3.850889048e-81
0
2.597637662e-80
0
0
5.358830492e-80
1.078337156e-79
4.862808486e-80
3.097477429e-81
8.727131009e-80
0
1.839253265e-79
1.235829285e-80
2.29985336e-79
4.469106309e-81
0
3.033056895e-80
2.485640786e-79
4.366995879e-79
1.526815409e-79
5.5605653e-81
1.163464164e-80
0
1.540972541e-79
1.777845473e-80
4.127169931e-79
6.351192961e-80
3.668943629e-79
2.708947488e-79
6.985255929e-79
2.645576328e-79
4.098304213e-79
2.380856734e-80
9.158270145e-79
6.680394669e-79
8.345152569e-81
5.788620045e-79
4.03693335e-79
3.221410498e-79
3.683722746e-79
0
4.636319597e-79
3.064270693e-79
3.428922614e-79
9.725976554e-79
0
9.322522919e-79
9.815291203e-80
1.654811405e-79
1.799282092e-79
2.318833781e-79
0
1.916797392e-79
2.959953202e-81
2.869236585e-79
1.858722898e-79
5.887767361e-79
0
3.199739653e-82
2.364327377e-79
0
1.547574712e-78
4.152623051e-79
8.328483378e-79
7.132757664e-81
4.457683014e-79
0
7.483587744e-79
6.359582697e-79
1.058522397e-79
2.893032058e-81
5.996079038e-79
1.966013156e-79
1.126163192e-81
1.006355433e-79
3.481671073e-79
2.543835467e-79
2.825346811e-79
3.01662456e-81
2.25680581e-79
2.874023778e-80
2.399999902e-79
0
0
3.459752675e-79
3.071987388e-80
5.193795882e-79
3.089371637e-79
9.685776119e-81
7.290649354e-80
0
1.507415265e-80
1.018365133e-79
9.136367737e-80
7.360703046e-80
1.692416238e-79
0
1.034354269e-79
7.855095338e-80
1.498130671e-80
0
8.225293496e-80
0
0
4.181874191e-80
2.98357531e-80
0
0
1.434159018e-79
3.48200588e-80
9.392378087e-80
0
1.081432938e-82
1.336562951e-79
2.518107706e-79
0
1.348628554e-79
4.353811743e-80
0
7.81307941e-82
0
5.608507929e-79
)
;

boundaryField
{
    inlet
    {
        type            fixedValue;
        value           uniform 0;
    }
    outlet
    {
        type            zeroGradient;
    }
    wall
    {
        type            empty;
    }
}


// ************************************************************************* //
