/*--------------------------------*- C++ -*----------------------------------*\
  =========                 |
  \\      /  F ield         | OpenFOAM: The Open Source CFD Toolbox
   \\    /   O peration     | Website:  https://openfoam.org
    \\  /    A nd           | Version:  7
     \\/     M anipulation  |
\*---------------------------------------------------------------------------*/
FoamFile
{
    version     2.0;
    format      ascii;
    class       volScalarField;
    location    "0.000558243009";
    object      C7H15-1_0;
}
// * * * * * * * * * * * * * * * * * * * * * * * * * * * * * * * * * * * * * //

dimensions      [0 0 0 0 0 0 0];

internalField   nonuniform List<scalar> 
1500
(
2.910492094e-19
1.130553045e-18
2.322292187e-18
3.460715685e-18
4.289892693e-18
4.782933152e-18
5.031881029e-18
5.141258031e-18
5.183795485e-18
5.198636988e-18
5.20333463e-18
5.204696068e-18
5.205059939e-18
5.205149924e-18
5.20517034e-18
5.205174349e-18
5.205174798e-18
5.205174582e-18
5.205174302e-18
5.205174065e-18
5.205173881e-18
5.205173742e-18
5.205173645e-18
5.205173586e-18
5.205173561e-18
5.205173565e-18
5.205173591e-18
5.205173633e-18
5.205173683e-18
5.205173732e-18
5.205173776e-18
5.205173808e-18
5.205173826e-18
5.205173829e-18
5.205173817e-18
5.205173791e-18
5.205173752e-18
5.205173702e-18
5.205173642e-18
5.205173576e-18
5.205173506e-18
5.205173433e-18
5.20517336e-18
5.205173289e-18
5.205173221e-18
5.205173157e-18
5.205173098e-18
5.205173045e-18
5.205172998e-18
5.205172955e-18
5.205172917e-18
5.205172884e-18
5.205172853e-18
5.205172826e-18
5.2051728e-18
5.205172777e-18
5.205172755e-18
5.205172735e-18
5.205172718e-18
5.205172702e-18
5.205172689e-18
5.205172679e-18
5.205172672e-18
5.20517267e-18
5.205172671e-18
5.205172678e-18
5.20517269e-18
5.205172707e-18
5.20517273e-18
5.205172758e-18
5.205172791e-18
5.205172828e-18
5.205172869e-18
5.205172914e-18
5.205172962e-18
5.20517301e-18
5.205173059e-18
5.205173108e-18
5.205173155e-18
5.205173199e-18
5.205173239e-18
5.205173274e-18
5.205173304e-18
5.205173327e-18
5.205173343e-18
5.205173352e-18
5.205173353e-18
5.205173346e-18
5.205173332e-18
5.205173309e-18
5.20517328e-18
5.205173243e-18
5.2051732e-18
5.205173152e-18
5.205173099e-18
5.205173042e-18
5.205172982e-18
5.20517292e-18
5.205172857e-18
5.205172794e-18
5.205172731e-18
5.205172671e-18
5.205172613e-18
5.205172558e-18
5.205172507e-18
5.205172461e-18
5.205172418e-18
5.20517238e-18
5.205172347e-18
5.205172318e-18
5.205172293e-18
5.205172272e-18
5.205172254e-18
5.205172239e-18
5.205172226e-18
5.205172215e-18
5.205172206e-18
5.205172198e-18
5.205172191e-18
5.205172184e-18
5.205172178e-18
5.205172173e-18
5.205172167e-18
5.205172162e-18
5.205172158e-18
5.205172153e-18
5.20517215e-18
5.205172147e-18
5.205172145e-18
5.205172144e-18
5.205172144e-18
5.205172144e-18
5.205172146e-18
5.205172149e-18
5.205172152e-18
5.205172157e-18
5.205172162e-18
5.205172169e-18
5.205172177e-18
5.205172186e-18
5.205172197e-18
5.205172209e-18
5.205172222e-18
5.205172238e-18
5.205172255e-18
5.205172275e-18
5.205172297e-18
5.205172321e-18
5.205172348e-18
5.205172377e-18
5.205172408e-18
5.205172441e-18
5.205172476e-18
5.205172512e-18
5.20517255e-18
5.20517259e-18
5.205172629e-18
5.205172669e-18
5.205172709e-18
5.205172749e-18
5.205172787e-18
5.205172824e-18
5.20517286e-18
5.205172893e-18
5.205172925e-18
5.205172953e-18
5.205172979e-18
5.205173001e-18
5.20517302e-18
5.205173035e-18
5.205173046e-18
5.205173053e-18
5.205173055e-18
5.205173053e-18
5.205173045e-18
5.205173033e-18
5.205173016e-18
5.205172994e-18
5.205172967e-18
5.205172935e-18
5.205172899e-18
5.205172858e-18
5.205172814e-18
5.205172766e-18
5.205172716e-18
5.205172664e-18
5.205172612e-18
5.20517256e-18
5.205172508e-18
5.20517246e-18
5.205172415e-18
5.205172374e-18
5.205172339e-18
5.205172311e-18
5.20517229e-18
5.205172277e-18
5.205172273e-18
5.205172277e-18
5.20517229e-18
5.205172311e-18
5.20517234e-18
5.205172376e-18
5.205172419e-18
5.205172467e-18
5.205172522e-18
5.20517258e-18
5.205172643e-18
5.205172709e-18
5.205172777e-18
5.205172848e-18
5.205172918e-18
5.205172989e-18
5.205173057e-18
5.205173122e-18
5.205173182e-18
5.205173234e-18
5.205173279e-18
5.205173314e-18
5.205173339e-18
5.205173356e-18
5.205173368e-18
5.205173376e-18
5.205173388e-18
5.205173409e-18
5.205173446e-18
5.205173508e-18
5.205173602e-18
5.205173734e-18
5.205173909e-18
5.205174127e-18
5.205174386e-18
5.20517468e-18
5.205174996e-18
5.205175321e-18
5.205175637e-18
5.205175925e-18
5.205176166e-18
5.205176344e-18
5.205176449e-18
5.205176478e-18
5.205176444e-18
5.205176387e-18
5.205176447e-18
5.205177127e-18
5.205180235e-18
5.20519178e-18
5.205229376e-18
5.205336008e-18
5.205587959e-18
5.20602073e-18
5.206114318e-18
5.206153424e-18
5.206194237e-18
5.206236824e-18
5.206281243e-18
5.206327563e-18
5.206375866e-18
5.20642624e-18
5.206478778e-18
5.206533577e-18
5.206590735e-18
5.206650359e-18
5.206712557e-18
5.206777445e-18
5.206845141e-18
5.206915771e-18
5.206989466e-18
5.207066363e-18
5.207146606e-18
5.207230346e-18
5.207317739e-18
5.207408951e-18
5.207504153e-18
5.207603527e-18
5.207707262e-18
5.207815556e-18
5.207928616e-18
5.208046661e-18
5.208169917e-18
5.208298624e-18
5.208433032e-18
5.208573404e-18
5.208720014e-18
5.208873152e-18
5.209033119e-18
5.209200233e-18
5.209374828e-18
5.209557252e-18
5.209747873e-18
5.209947075e-18
5.210155264e-18
5.210372863e-18
5.210600319e-18
5.2108381e-18
5.2110867e-18
5.211346637e-18
5.211618454e-18
5.211902725e-18
5.212200052e-18
5.21251107e-18
5.212836447e-18
5.213176886e-18
5.213533128e-18
5.213905954e-18
5.214296186e-18
5.214704692e-18
5.215132389e-18
5.215580242e-18
5.216049272e-18
5.216540556e-18
5.217055232e-18
5.217594504e-18
5.218159644e-18
5.218751999e-18
5.219372994e-18
5.220024138e-18
5.22070703e-18
5.221423365e-18
5.22217494e-18
5.22296366e-18
5.223791551e-18
5.22466076e-18
5.225573573e-18
5.226532415e-18
5.227539868e-18
5.228598678e-18
5.229711769e-18
5.230882255e-18
5.232113453e-18
5.233408898e-18
5.234772361e-18
5.236207864e-18
5.237719701e-18
5.239312454e-18
5.240991018e-18
5.242760624e-18
5.244626859e-18
5.246595699e-18
5.248673534e-18
5.250867197e-18
5.253184e-18
5.255631767e-18
5.258218871e-18
5.260954276e-18
5.263847578e-18
5.266909051e-18
5.270149694e-18
5.273581287e-18
5.277216442e-18
5.281068663e-18
5.285152408e-18
5.289483158e-18
5.294077482e-18
5.298953117e-18
5.304129042e-18
5.309625563e-18
5.315464402e-18
5.32166879e-18
5.328263561e-18
5.335275259e-18
5.342732244e-18
5.350664805e-18
5.359105281e-18
5.368088182e-18
5.377650322e-18
5.387830955e-18
5.398671912e-18
5.410217754e-18
5.422515922e-18
5.435616895e-18
5.449574354e-18
5.464445354e-18
5.480290497e-18
5.497174115e-18
5.515164452e-18
5.534333854e-18
5.554758968e-18
5.576520936e-18
5.5997056e-18
5.624403706e-18
5.650711116e-18
5.678729015e-18
5.708564125e-18
5.740328921e-18
5.774141841e-18
5.810127506e-18
5.848416925e-18
5.889147714e-18
5.932464298e-18
5.978518118e-18
6.02746783e-18
6.079479497e-18
6.134726779e-18
6.193391109e-18
6.255661861e-18
6.321736512e-18
6.391820788e-18
6.466128798e-18
6.544883152e-18
6.628315069e-18
6.716664461e-18
6.810180006e-18
6.909119194e-18
7.013748357e-18
7.124342681e-18
7.24118618e-18
7.364571666e-18
7.494800674e-18
7.632183374e-18
7.777038447e-18
7.92969294e-18
8.090482079e-18
8.259749068e-18
8.43784484e-18
8.62512779e-18
8.821963468e-18
9.028724242e-18
9.245788927e-18
9.473542383e-18
9.712375079e-18
9.962682625e-18
1.022486527e-17
1.049932737e-17
1.078647684e-17
1.108672452e-17
1.140048361e-17
1.172816897e-17
1.207019648e-17
1.242698232e-17
1.279894224e-17
1.318649085e-17
1.359004081e-17
1.401000208e-17
1.444678114e-17
1.490078012e-17
1.537239605e-17
1.586202002e-17
1.637003633e-17
1.689682168e-17
1.744274435e-17
1.800816338e-17
1.859342777e-17
1.919887563e-17
1.982483348e-17
2.047161542e-17
2.113952244e-17
2.182884164e-17
2.253984562e-17
2.327279177e-17
2.402792168e-17
2.480546053e-17
2.56056166e-17
2.642858072e-17
2.727452587e-17
2.814360676e-17
2.903595949e-17
2.995170128e-17
3.08909302e-17
3.185372507e-17
3.284014529e-17
3.385023084e-17
3.488400227e-17
3.594146084e-17
3.702258866e-17
3.812734893e-17
3.925568623e-17
4.040752694e-17
4.15827797e-17
4.278133588e-17
4.400307029e-17
4.524784179e-17
4.651549411e-17
4.780585669e-17
4.911874561e-17
5.045396457e-17
5.181130607e-17
5.319055251e-17
5.45914775e-17
5.601384718e-17
5.74574217e-17
5.892195673e-17
6.040720505e-17
6.19129183e-17
6.343884879e-17
6.498475133e-17
6.655038532e-17
6.813551679e-17
6.973992062e-17
7.136338286e-17
7.300570315e-17
7.466669723e-17
7.634619965e-17
7.804406649e-17
7.976017831e-17
8.149444316e-17
8.324679978e-17
8.501722092e-17
8.68057168e-17
8.861233875e-17
9.043718297e-17
9.228039453e-17
9.414217149e-17
9.602276916e-17
9.792250471e-17
9.984176177e-17
1.017809954e-16
1.03740737e-16
1.057216001e-16
1.077242854e-16
1.097495868e-16
1.117983974e-16
1.138717157e-16
1.159706526e-16
1.180964374e-16
1.202504267e-16
1.2243411e-16
1.246491172e-16
1.268972268e-16
1.291803749e-16
1.315006628e-16
1.338603667e-16
1.36261946e-16
1.387080531e-16
1.412015426e-16
1.437454811e-16
1.463431572e-16
1.489980917e-16
1.517140481e-16
1.544950425e-16
1.573453557e-16
1.602695442e-16
1.632724519e-16
1.663592214e-16
1.695353079e-16
1.728064901e-16
1.761788822e-16
1.796589468e-16
1.832535083e-16
1.869697659e-16
1.90815307e-16
1.947981206e-16
1.989266115e-16
2.032096138e-16
2.076564055e-16
2.122767229e-16
2.170807755e-16
2.220792613e-16
2.272833816e-16
2.327048576e-16
2.383559462e-16
2.442494566e-16
2.503987677e-16
2.568178459e-16
2.635212635e-16
2.705242175e-16
2.778425501e-16
2.854927693e-16
2.93492071e-16
3.01858362e-16
3.106102844e-16
3.197672414e-16
3.29349425e-16
3.393778448e-16
3.498743596e-16
3.608617104e-16
3.723635562e-16
3.844045124e-16
3.970101915e-16
4.102072476e-16
4.24023424e-16
4.384876039e-16
4.536298656e-16
4.694815418e-16
4.860752834e-16
5.034451281e-16
5.216265745e-16
5.406566613e-16
5.605740537e-16
5.814191352e-16
6.032341075e-16
6.260630976e-16
6.499522741e-16
6.749499719e-16
7.011068295e-16
7.284759364e-16
7.57112996e-16
7.870765049e-16
8.184279518e-16
8.512320423e-16
8.85556953e-16
9.214746267e-16
9.590611179e-16
9.98397006e-16
1.039567897e-15
1.082665048e-15
1.127786147e-15
1.175036321e-15
1.22452944e-15
1.276389827e-15
1.33075454e-15
1.387776422e-15
1.447628217e-15
1.510508154e-15
1.576647552e-15
1.646321213e-15
1.71986167e-15
1.797678727e-15
1.880286344e-15
1.968339621e-15
2.062685743e-15
2.164434191e-15
2.275053539e-15
2.396504956e-15
2.531426368e-15
2.683386528e-15
2.85723559e-15
3.059588829e-15
3.299494139e-15
3.58935308e-15
3.946191796e-15
4.393414631e-15
4.963223671e-15
5.69995689e-15
6.664693387e-15
7.941606167e-15
9.64672493e-15
1.1940022e-14
1.504208e-14
1.925707573e-14
2.500446985e-14
3.286269444e-14
4.362937198e-14
5.84043084e-14
7.870385302e-14
1.066184501e-13
1.450296492e-13
1.979089431e-13
2.707291813e-13
3.710308071e-13
5.092009296e-13
6.995448564e-13
9.617592948e-13
1.322956907e-12
1.820447217e-12
2.505554383e-12
3.448855278e-12
4.747361488e-12
6.534359325e-12
8.992880443e-12
1.237412567e-11
1.702263759e-11
2.341065499e-11
3.218493886e-11
4.423050806e-11
6.075725545e-11
8.341745499e-11
1.144648707e-10
1.56969739e-10
2.151085621e-10
2.945537345e-10
4.029958953e-10
5.508420202e-10
7.521451564e-10
1.025837988e-09
1.397362766e-09
1.90081528e-09
2.58175124e-09
3.500840356e-09
4.738597149e-09
6.401468473e-09
8.62961596e-09
1.160679669e-08
1.557281655e-08
2.083910641e-08
2.780804926e-08
3.699676389e-08
4.906612388e-08
6.485585487e-08
8.542660155e-08
1.121098797e-07
1.465668142e-07
1.908564908e-07
2.475145831e-07
3.196426193e-07
4.110077356e-07
5.261519294e-07
6.705084293e-07
8.5052049e-07
1.073753952e-06
1.34898842e-06
1.686260578e-06
2.09681673e-06
2.592906e-06
3.187313123e-06
3.892493266e-06
4.719145716e-06
5.674072207e-06
6.756249246e-06
7.957509629e-06
9.247485374e-06
1.060104418e-05
1.196246203e-05
1.327118969e-05
1.440981789e-05
1.535769596e-05
1.604004758e-05
1.632240287e-05
1.601259055e-05
1.497627519e-05
1.33168129e-05
1.134976663e-05
9.409854054e-06
7.714063155e-06
6.33597197e-06
5.236494299e-06
4.418266991e-06
3.783430078e-06
3.260352705e-06
2.784983119e-06
2.342606352e-06
1.913356609e-06
1.505240687e-06
1.138785763e-06
8.256661606e-07
5.723706104e-07
3.796957847e-07
2.421133992e-07
1.49937595e-07
9.111394576e-08
5.47433298e-08
3.287613289e-08
1.972554225e-08
1.195551078e-08
7.306937157e-09
4.504997887e-09
2.802176194e-09
1.759089166e-09
1.109712397e-09
7.003578997e-10
4.44439033e-10
2.834951485e-10
1.816800019e-10
1.169312796e-10
7.556460437e-11
4.901308826e-11
3.188851399e-11
2.079472551e-11
1.371593829e-11
9.072571504e-12
5.983517541e-12
3.957191889e-12
2.62288722e-12
1.741386829e-12
1.157516506e-12
7.700234393e-13
5.126651204e-13
3.413515817e-13
2.273173555e-13
1.513765595e-13
1.007908347e-13
6.709133952e-14
4.464219779e-14
2.969012738e-14
1.973431294e-14
1.31079073e-14
8.699725744e-15
5.768982339e-15
3.821868669e-15
2.529281924e-15
1.671960333e-15
1.1038861e-15
7.278705463e-16
4.792664456e-16
3.151036095e-16
2.068437487e-16
1.355506552e-16
8.8671998e-17
5.789618306e-17
3.772608954e-17
2.453060572e-17
1.591443563e-17
1.029976774e-17
6.648864619e-18
4.280306394e-18
2.747415852e-18
1.757926601e-18
1.120975684e-18
7.121774235e-19
4.506465706e-19
2.839074548e-19
1.779998748e-19
1.110042049e-19
6.881244766e-20
4.237196496e-20
2.58930545e-20
1.568610833e-20
9.409171248e-21
5.582464036e-21
3.276213873e-21
1.898430631e-21
1.081557837e-21
6.019857058e-22
3.240428598e-22
1.657078472e-22
7.762538663e-23
3.027668118e-23
6.146686358e-24
0
0
0
0
0
0
0
0
0
0
0
0
0
0
0
0
0
0
0
0
0
0
1.454562988e-27
2.044207192e-27
2.126206937e-27
1.954720378e-27
1.678288392e-27
1.378191708e-27
1.096236862e-27
8.512007036e-28
6.485358166e-28
4.866072518e-28
3.605025612e-28
2.642301611e-28
1.918946808e-28
1.382518144e-28
9.890594515e-29
7.031608854e-29
4.970993471e-29
3.496332149e-29
2.447597287e-29
1.705840177e-29
1.183570256e-29
8.168946973e-30
5.609965881e-30
3.836223667e-30
2.613727063e-30
1.775279829e-30
1.202493892e-30
8.124039905e-31
5.474958499e-31
3.680794565e-31
2.468736136e-31
1.651924224e-31
1.102779433e-31
7.344503963e-32
4.879727679e-32
3.234178451e-32
2.138136322e-32
1.409836986e-32
9.270735717e-33
6.078698385e-33
3.973613721e-33
2.589127791e-33
1.68117433e-33
1.087537305e-33
7.006606492e-34
4.494061142e-34
2.868411061e-34
1.820801868e-34
1.148442661e-34
7.18696818e-35
4.478683306e-35
2.776690583e-35
1.710843144e-35
1.046235863e-35
6.339708816e-36
3.798352347e-36
2.243566801e-36
1.301089493e-36
7.362328849e-37
4.024914753e-37
2.089009604e-37
9.93377702e-38
3.943919594e-38
8.361441232e-39
0
0
0
0
0
0
0
0
0
0
0
0
0
0
0
0
0
0
0
0
0
0
0
0
3.130250733e-43
8.446945059e-43
1.018438234e-42
1.002236154e-42
8.964439975e-43
7.57019932e-43
6.151359497e-43
4.864061896e-43
3.774124194e-43
2.894901804e-43
2.184062764e-43
1.647552287e-43
1.222883575e-43
9.175465889e-44
7.153286996e-44
5.590519536e-44
4.199731352e-44
3.144710016e-44
2.477520112e-44
1.964970744e-44
1.372730515e-44
1.005665633e-44
7.141041299e-45
5.334775254e-45
4.422620617e-45
2.991624372e-45
2.021893077e-45
1.412911196e-45
1.050940373e-45
8.789166285e-46
6.159420996e-46
4.639854056e-46
4.071086167e-46
4.420958772e-46
3.053334065e-46
2.34832737e-46
2.193610849e-46
2.626523891e-46
3.40987808e-46
4.388564657e-46
4.573296008e-46
4.334167058e-46
3.114728611e-46
2.04164647e-46
1.398021767e-46
1.031808036e-46
6.896784661e-47
4.936739944e-47
4.074798848e-47
4.025112507e-47
4.207761879e-47
2.89231663e-47
2.141693035e-47
1.880159129e-47
1.177702097e-47
7.170132091e-48
4.177620846e-48
2.339857707e-48
1.460213471e-48
1.151043459e-48
1.314330094e-48
2.000635375e-48
3.314847706e-48
3.812505626e-48
5.251818963e-48
4.477969905e-48
3.239901742e-48
2.622393646e-48
2.57651825e-48
2.840057326e-48
2.524111515e-48
2.068991789e-48
2.017761913e-48
1.606015123e-48
1.178866552e-48
9.712167798e-49
9.616795578e-49
6.991482892e-49
5.710405741e-49
5.1579656e-49
4.036864769e-49
2.664808869e-49
1.781308741e-49
1.234724078e-49
9.540031096e-50
8.85334061e-50
1.037551044e-49
1.164009958e-49
9.239128194e-50
8.849304799e-50
7.886625021e-50
6.045488742e-50
5.576946085e-50
3.718139507e-50
2.881647703e-50
2.971329825e-50
4.036378631e-50
2.834625471e-50
2.372898799e-50
1.915231295e-50
1.95022088e-50
1.800223369e-50
1.261596364e-50
1.003204117e-50
9.444513941e-51
6.744314986e-51
5.176680985e-51
4.43852806e-51
4.421703478e-51
3.449427616e-51
2.94345967e-51
2.795345772e-51
2.980808654e-51
3.438495341e-51
2.981987114e-51
2.783172196e-51
2.890167609e-51
3.430665456e-51
2.391368439e-51
1.714440445e-51
1.316253308e-51
1.161553992e-51
8.329809808e-52
6.810112737e-52
6.908287145e-52
5.557596459e-52
5.553622854e-52
5.814929134e-52
5.492191857e-52
4.806865605e-52
3.628874024e-52
3.241933358e-52
3.587932624e-52
4.140259352e-52
4.118935748e-52
3.999678334e-52
3.071413092e-52
2.783684513e-52
2.328706879e-52
2.142417762e-52
1.892323702e-52
1.55230995e-52
1.457762968e-52
1.230145431e-52
1.063827992e-52
9.680926498e-53
8.155594715e-53
7.533964433e-53
7.2974574e-53
7.227729767e-53
6.654012193e-53
5.954488801e-53
5.619372986e-53
5.155693736e-53
4.853488855e-53
4.760973954e-53
4.59395692e-53
4.642480188e-53
4.63052745e-53
4.331140255e-53
4.045842692e-53
3.822054634e-53
3.597196347e-53
3.348883465e-53
3.105997889e-53
2.886178079e-53
2.734079824e-53
2.532603279e-53
2.369135079e-53
2.229933549e-53
2.126580139e-53
2.065045317e-53
1.953960606e-53
1.8632138e-53
1.764117653e-53
1.660066727e-53
1.564105794e-53
1.48095421e-53
1.396099209e-53
1.320282843e-53
1.259322522e-53
1.20060774e-53
1.135228805e-53
1.068682231e-53
1.00975874e-53
9.52126946e-54
9.009644377e-54
8.524341632e-54
8.061280891e-54
7.636616273e-54
7.238719003e-54
6.848457158e-54
6.476620488e-54
6.1141518e-54
5.782892618e-54
5.471959533e-54
5.181384969e-54
4.910308242e-54
4.652062951e-54
4.406407139e-54
4.174379158e-54
3.953616755e-54
3.744121397e-54
3.550096434e-54
3.365812757e-54
3.188257252e-54
3.019725657e-54
2.861539671e-54
2.713432147e-54
2.575014531e-54
2.441541738e-54
2.313282664e-54
2.193505487e-54
2.079842967e-54
1.972665475e-54
1.870990386e-54
1.775209853e-54
1.683022488e-54
1.596274472e-54
1.514190715e-54
1.436252388e-54
1.362811519e-54
1.292971459e-54
1.226287916e-54
1.163239251e-54
1.103735591e-54
1.047944292e-54
9.948210362e-55
9.4371153e-55
8.954862391e-55
8.496487933e-55
8.064977514e-55
7.652503556e-55
7.261753299e-55
6.896121132e-55
6.545329598e-55
6.211725463e-55
5.897670159e-55
5.5999954e-55
5.31895329e-55
5.052622868e-55
4.79973765e-55
4.557955278e-55
4.327330646e-55
4.108730459e-55
3.905038352e-55
3.710175752e-55
3.522722046e-55
3.347005211e-55
3.180639722e-55
3.020849345e-55
2.869974966e-55
2.727158961e-55
2.59201735e-55
2.459611675e-55
2.335091097e-55
2.217026728e-55
2.106970446e-55
2.004510683e-55
1.905499052e-55
1.811604686e-55
1.721291151e-55
1.636423688e-55
1.553716398e-55
1.476272905e-55
1.403178821e-55
1.333956156e-55
1.269512913e-55
1.206566174e-55
1.146116671e-55
1.087943377e-55
1.033342325e-55
9.814894111e-56
9.336978713e-56
8.87622728e-56
8.440070842e-56
8.020365886e-56
7.616219035e-56
7.240064622e-56
6.885607592e-56
6.541942954e-56
6.215685299e-56
5.910119686e-56
5.619631505e-56
5.350471006e-56
5.08455869e-56
4.833410065e-56
4.590250402e-56
4.369512708e-56
4.160510924e-56
3.963943214e-56
3.776669582e-56
3.599253294e-56
3.419727616e-56
3.249696968e-56
3.086818653e-56
2.931252367e-56
2.785427707e-56
2.647764958e-56
2.52265703e-56
2.405555241e-56
2.286752106e-56
2.171181274e-56
2.060715625e-56
1.963560918e-56
1.868267701e-56
1.77727812e-56
1.688761127e-56
1.608725248e-56
1.526575649e-56
1.449664099e-56
1.378019588e-56
1.311620645e-56
1.248496903e-56
1.186486316e-56
1.129072233e-56
1.072114696e-56
1.022142825e-56
9.713351698e-57
9.249081577e-57
8.800775358e-57
8.35707241e-57
7.919403732e-57
7.515451938e-57
7.16484867e-57
6.813881155e-57
6.478016671e-57
6.136405623e-57
5.832291098e-57
5.536437311e-57
5.237459925e-57
4.965029573e-57
4.708100586e-57
2.863724124e-57
1.459546571e-57
6.875330722e-58
3.806506313e-58
1.94852788e-58
1.005199064e-58
4.704248553e-59
2.173247485e-59
9.781052818e-60
6.29445583e-60
2.29190092e-60
1.18470906e-60
8.787218723e-61
6.403823954e-61
2.255922979e-61
6.471807512e-62
2.200907195e-62
6.050695159e-62
1.630110127e-62
9.238374638e-63
9.522528449e-63
2.35571179e-64
1.582636966e-63
1.857352102e-64
5.903229208e-65
0
8.740670616e-68
7.774055152e-66
2.053565967e-65
4.238196367e-66
3.099412875e-66
1.950623993e-65
5.141706459e-67
2.303972744e-68
0
9.373292594e-67
1.335418671e-66
3.248778724e-68
1.371804306e-68
0
8.104272467e-68
5.350894444e-68
5.194120067e-69
1.547445993e-67
6.80413815e-69
7.24276942e-68
0
9.495977338e-69
3.587930883e-68
5.511257826e-69
2.173736311e-68
8.173518181e-69
1.528468377e-70
1.2854382e-69
4.320725909e-69
3.833222217e-70
1.388613743e-70
0
2.9967049e-70
2.578434365e-70
3.232809984e-71
5.138730733e-71
2.51911335e-71
1.057567525e-72
6.596485578e-72
3.599834603e-72
6.722070559e-74
7.050142111e-74
4.944693329e-73
7.146713831e-73
5.802373126e-73
0
5.661182019e-73
3.57294113e-73
9.524531032e-74
1.155764556e-73
9.992600348e-74
1.225385375e-73
5.830015466e-74
1.088007752e-74
3.640405674e-75
1.789048248e-74
1.378724774e-74
2.835202812e-75
8.030518177e-76
0
1.26987501e-75
1.893759656e-76
2.643498859e-76
2.372895872e-77
2.583270777e-77
4.197852631e-77
3.558951883e-78
5.641143207e-78
9.323469094e-78
4.398694149e-80
8.718686495e-79
0
3.386240245e-82
1.555644477e-80
4.36989908e-83
1.087311561e-79
7.217095361e-80
1.806967091e-80
2.779037919e-81
5.917572994e-83
2.60957639e-82
2.133596808e-81
3.891198151e-81
1.21541342e-80
1.208395345e-82
1.377825862e-81
4.578793677e-82
8.298022106e-81
3.129632847e-82
3.444161788e-83
4.566290585e-81
4.525174701e-82
2.004474254e-81
1.61210138e-81
4.834049292e-82
0
6.164196367e-82
7.105175024e-82
1.478595988e-81
1.398293055e-81
0
0
0
1.35094823e-81
2.222578172e-81
5.751599516e-81
4.500416392e-81
3.289954444e-81
2.549556283e-81
7.698249568e-81
0
4.699827109e-82
0
8.737197583e-81
8.247514978e-81
1.33798779e-82
0
5.459854265e-81
2.472354917e-82
3.14284075e-82
4.328189845e-81
5.149457573e-81
2.569080188e-82
5.937683175e-81
0
2.13058389e-81
3.217004485e-82
0
3.017613603e-81
6.375708557e-81
0
3.397466613e-83
1.527715549e-80
0
4.175614929e-81
0
0
5.401068405e-83
1.468051629e-80
1.586547098e-82
2.042942849e-80
3.707576215e-82
1.429768935e-82
2.052987009e-81
5.692636372e-81
1.180667011e-80
3.055974757e-81
1.39071575e-81
0
0
4.281919767e-81
2.79011979e-81
1.001829108e-82
1.080443993e-81
0
1.105633346e-82
3.595172821e-81
6.041925905e-83
3.93694401e-83
1.712504418e-81
8.93384963e-84
1.112105478e-80
4.612818535e-81
3.173071211e-81
5.55406058e-82
8.851572946e-82
9.811805947e-84
0
0
0
0
1.207530191e-80
6.843075715e-83
7.634269283e-82
1.840578579e-81
1.596371731e-81
4.91935182e-81
2.091563966e-81
0
3.788750879e-81
0
3.3999339e-81
1.680541484e-81
6.59438238e-82
2.775258226e-82
1.533898896e-82
1.460807279e-81
1.521289333e-83
0
1.61302443e-83
4.557129345e-82
4.681327215e-83
4.547708e-83
3.241831072e-84
2.942966342e-83
1.606273888e-82
0
4.108201173e-86
3.031707336e-83
0
0
1.258883284e-83
0
4.887437414e-81
2.241478196e-82
5.79772774e-84
5.090780823e-82
0
0
0
2.1850062e-81
2.009955366e-81
0
1.083146832e-83
0
6.52339635e-82
1.490533884e-80
2.14424534e-81
8.057996339e-81
4.573463582e-81
4.343497873e-83
0
0
0
)
;

boundaryField
{
    inlet
    {
        type            fixedValue;
        value           uniform 0;
    }
    outlet
    {
        type            zeroGradient;
    }
    wall
    {
        type            empty;
    }
}


// ************************************************************************* //
