/*--------------------------------*- C++ -*----------------------------------*\
  =========                 |
  \\      /  F ield         | OpenFOAM: The Open Source CFD Toolbox
   \\    /   O peration     | Website:  https://openfoam.org
    \\  /    A nd           | Version:  7
     \\/     M anipulation  |
\*---------------------------------------------------------------------------*/
FoamFile
{
    version     2.0;
    format      ascii;
    class       volScalarField;
    location    "0.000558243009";
    object      C7H16;
}
// * * * * * * * * * * * * * * * * * * * * * * * * * * * * * * * * * * * * * //

dimensions      [0 0 0 0 0 0 0];

internalField   nonuniform List<scalar> 
1500
(
0.003476497225
0.01350425458
0.02773973484
0.04133921952
0.05124569485
0.05713729354
0.06011277996
0.06142042125
0.06192911574
0.06210665628
0.06216287285
0.06217917587
0.06218354105
0.0621846276
0.0621848805
0.06218493583
0.06218494726
0.06218494949
0.06218494991
0.06218494998
0.06218495
0.06218495
0.06218495
0.06218495
0.06218495
0.06218495
0.06218495
0.06218495
0.06218495
0.06218495
0.06218495
0.06218495
0.06218495
0.06218495
0.06218495
0.06218495
0.06218495
0.06218495
0.06218495
0.06218495
0.06218495
0.06218495
0.06218495
0.06218495
0.06218495
0.06218495
0.06218495
0.06218495
0.06218495
0.06218495
0.06218495
0.06218495
0.06218495
0.06218495
0.06218495
0.06218495
0.06218495
0.06218495
0.06218495
0.06218495
0.06218495
0.06218495
0.06218495
0.06218495
0.06218495
0.06218495
0.06218495
0.06218495
0.06218495
0.06218495
0.06218495
0.06218495
0.06218495
0.06218495
0.06218495
0.06218495
0.06218495
0.06218495
0.06218495
0.06218495
0.06218495
0.06218495
0.06218495
0.06218495
0.06218495
0.06218495
0.06218495
0.06218495
0.06218495
0.06218495
0.06218495
0.06218495
0.06218495
0.06218495
0.06218495
0.06218495
0.06218495
0.06218495
0.06218495
0.06218495
0.06218495
0.06218495
0.06218495
0.06218495
0.06218495
0.06218495
0.06218495
0.06218495
0.06218495
0.06218495
0.06218495
0.06218495
0.06218495
0.06218495
0.06218495
0.06218495
0.06218495
0.06218495
0.06218495
0.06218495
0.06218495
0.06218495
0.06218495
0.06218495
0.06218495
0.06218495
0.06218495
0.06218495
0.06218495
0.06218495
0.06218495
0.06218495
0.06218495
0.06218495
0.06218495
0.06218495
0.06218495
0.06218495
0.06218495
0.06218495
0.06218495
0.06218495
0.06218495
0.06218495
0.06218495
0.06218495
0.06218495
0.06218495
0.06218495
0.06218495
0.06218495
0.06218495
0.06218495
0.06218495
0.06218495
0.06218495
0.06218495
0.06218495
0.06218495
0.06218495
0.06218495
0.06218495
0.06218495
0.06218495
0.06218495
0.06218495
0.06218495
0.06218495
0.06218495
0.06218495
0.06218495
0.06218495
0.06218495
0.06218495
0.06218495
0.06218495
0.06218495
0.06218495
0.06218495
0.06218495
0.06218495
0.06218495
0.06218495
0.06218495
0.06218495
0.06218495
0.06218495
0.06218495
0.06218495
0.06218495
0.06218495
0.06218495
0.06218495
0.06218495
0.06218495
0.06218495
0.06218495
0.06218495
0.06218495
0.06218495
0.06218495
0.06218495
0.06218495
0.06218495
0.06218495
0.06218495
0.06218495
0.06218495
0.06218495
0.06218495
0.06218495
0.06218495
0.06218495
0.06218495
0.06218495
0.06218495
0.06218495
0.06218495
0.06218495
0.06218495
0.06218495
0.06218495
0.06218495
0.06218495
0.06218495
0.06218495
0.06218495
0.06218495
0.06218495
0.06218495
0.06218495
0.06218495
0.06218495
0.06218495
0.06218495
0.06218495
0.06218495001
0.06218495002
0.06218495003
0.06218495005
0.06218495007
0.06218495011
0.06218495017
0.06218495026
0.06218495038
0.06218495055
0.06218495078
0.0621849511
0.06218495158
0.06218495237
0.0621849524
0.06218495246
0.06218495251
0.06218495257
0.06218495263
0.06218495269
0.06218495275
0.06218495281
0.06218495287
0.06218495294
0.062184953
0.06218495307
0.06218495314
0.06218495321
0.06218495328
0.06218495336
0.06218495343
0.06218495351
0.06218495359
0.06218495367
0.06218495375
0.06218495383
0.06218495392
0.06218495401
0.0621849541
0.06218495419
0.06218495428
0.06218495437
0.06218495447
0.06218495457
0.06218495467
0.06218495477
0.06218495488
0.06218495499
0.06218495509
0.06218495521
0.06218495532
0.06218495544
0.06218495555
0.06218495568
0.0621849558
0.06218495592
0.06218495605
0.06218495618
0.06218495632
0.06218495645
0.06218495659
0.06218495673
0.06218495688
0.06218495702
0.06218495717
0.06218495733
0.06218495748
0.06218495764
0.0621849578
0.06218495797
0.06218495814
0.06218495831
0.06218495848
0.06218495866
0.06218495884
0.06218495903
0.06218495922
0.06218495941
0.06218495961
0.06218495981
0.06218496001
0.06218496022
0.06218496043
0.06218496064
0.06218496086
0.06218496108
0.06218496131
0.06218496154
0.06218496178
0.06218496202
0.06218496226
0.06218496251
0.06218496277
0.06218496303
0.06218496329
0.06218496356
0.06218496383
0.06218496411
0.06218496439
0.06218496468
0.06218496497
0.06218496527
0.06218496557
0.06218496588
0.0621849662
0.06218496652
0.06218496685
0.06218496718
0.06218496752
0.06218496786
0.06218496821
0.06218496857
0.06218496893
0.0621849693
0.06218496967
0.06218497005
0.06218497044
0.06218497084
0.06218497124
0.06218497165
0.06218497206
0.06218497249
0.06218497292
0.06218497335
0.0621849738
0.06218497425
0.06218497471
0.06218497518
0.06218497566
0.06218497614
0.06218497663
0.06218497713
0.06218497764
0.06218497816
0.06218497869
0.06218497922
0.06218497977
0.06218498032
0.06218498088
0.06218498146
0.06218498204
0.06218498263
0.06218498323
0.06218498384
0.06218498446
0.06218498509
0.06218498573
0.06218498639
0.06218498705
0.06218498772
0.06218498841
0.06218498911
0.06218498981
0.06218499053
0.06218499127
0.06218499201
0.06218499277
0.06218499353
0.06218499431
0.06218499511
0.06218499591
0.06218499674
0.06218499757
0.06218499842
0.06218499928
0.06218500015
0.06218500104
0.06218500195
0.06218500287
0.0621850038
0.06218500475
0.06218500572
0.0621850067
0.0621850077
0.06218500872
0.06218500975
0.0621850108
0.06218501187
0.06218501296
0.06218501406
0.06218501519
0.06218501633
0.06218501749
0.06218501868
0.06218501988
0.0621850211
0.06218502235
0.06218502362
0.06218502491
0.06218502622
0.06218502755
0.06218502891
0.06218503029
0.0621850317
0.06218503313
0.06218503459
0.06218503607
0.06218503758
0.06218503912
0.06218504069
0.06218504228
0.0621850439
0.06218504556
0.06218504724
0.06218504895
0.0621850507
0.06218505248
0.06218505429
0.06218505613
0.06218505801
0.06218505993
0.06218506188
0.06218506387
0.06218506589
0.06218506796
0.06218507006
0.06218507221
0.06218507439
0.06218507662
0.06218507889
0.06218508121
0.06218508357
0.06218508598
0.06218508843
0.06218509093
0.06218509349
0.06218509609
0.06218509874
0.06218510145
0.06218510421
0.06218510703
0.0621851099
0.06218511283
0.06218511582
0.06218511887
0.06218512199
0.06218512517
0.06218512841
0.06218513172
0.0621851351
0.06218513854
0.06218514206
0.06218514566
0.06218514932
0.06218515307
0.06218515689
0.0621851608
0.06218516479
0.06218516886
0.06218517302
0.06218517727
0.06218518161
0.06218518605
0.06218519058
0.06218519521
0.06218519994
0.06218520477
0.06218520972
0.06218521477
0.06218521993
0.06218522521
0.06218523061
0.06218523613
0.06218524177
0.06218524754
0.06218525344
0.06218525948
0.06218526565
0.06218527197
0.06218527844
0.06218528505
0.06218529182
0.06218529874
0.06218530583
0.06218531309
0.06218532052
0.06218532813
0.06218533591
0.06218534389
0.06218535206
0.06218536042
0.06218536899
0.06218537776
0.06218538676
0.06218539597
0.06218540541
0.06218541508
0.062185425
0.06218543516
0.06218544558
0.06218545626
0.06218546721
0.06218547844
0.06218548995
0.06218550176
0.06218551387
0.06218552629
0.06218553904
0.06218555211
0.06218556553
0.0621855793
0.06218559342
0.06218560793
0.06218562281
0.06218563809
0.06218565378
0.06218566988
0.06218568642
0.0621857034
0.06218572085
0.06218573876
0.06218575716
0.06218577607
0.06218579549
0.06218581545
0.06218583596
0.06218585704
0.0621858787
0.06218590097
0.06218592386
0.06218594739
0.06218597159
0.06218599647
0.06218602206
0.06218604838
0.06218607545
0.0621861033
0.06218613195
0.06218616143
0.06218619177
0.06218622299
0.06218625513
0.06218628821
0.06218632227
0.06218635733
0.06218639345
0.06218643064
0.06218646895
0.06218650842
0.06218654908
0.06218659099
0.06218663418
0.0621866787
0.0621867246
0.06218677194
0.06218682076
0.06218687112
0.06218692308
0.0621869767
0.06218703205
0.0621870892
0.06218714822
0.06218720918
0.06218727216
0.06218733726
0.06218740457
0.06218747417
0.06218754617
0.06218762069
0.06218769783
0.06218777772
0.06218786049
0.06218794628
0.06218803524
0.06218812754
0.06218822334
0.06218832284
0.06218842622
0.06218853372
0.06218864555
0.06218876197
0.06218888325
0.06218900968
0.06218914159
0.0621892793
0.0621894232
0.06218957368
0.0621897312
0.06218989623
0.06219006929
0.06219025095
0.06219044183
0.06219064261
0.06219085404
0.06219107693
0.06219131216
0.06219156071
0.06219182365
0.06219210214
0.06219239747
0.06219271104
0.06219304441
0.06219339926
0.06219377747
0.06219418108
0.06219461234
0.06219507373
0.06219556795
0.062196098
0.06219666714
0.06219727898
0.06219793747
0.06219864693
0.06219941212
0.06220023823
0.06220113095
0.0622020965
0.06220314166
0.06220427383
0.06220550105
0.06220683203
0.06220827621
0.06220984379
0.0622115457
0.06221339366
0.06221540013
0.06221757831
0.06221994206
0.06222250578
0.0622252843
0.06222829264
0.06223154572
0.06223505795
0.06223884275
0.06224291183
0.06224727436
0.06225193582
0.06225689663
0.06226215036
0.06226768155
0.06227346296
0.0622794522
0.06228558756
0.06229178294
0.06229792167
0.06230384902
0.06230936324
0.06231420485
0.06231804391
0.06232046518
0.06232095067
0.0623188597
0.062313406
0.06230363186
0.06228837926
0.06226625784
0.06223560992
0.06219447247
0.06214053632
0.06207110279
0.06198303798
0.06187272502
0.06173601478
0.06156817526
0.06136384034
0.06111695792
0.0608207378
0.06046759909
0.06004911633
0.0595559629
0.05897786572
0.05830386306
0.05752047924
0.05661632564
0.05556790971
0.05435762554
0.05296609906
0.0514272464
0.04970185913
0.04777998785
0.04565787422
0.04333901287
0.04083463443
0.03816143799
0.03533922877
0.03239113677
0.02934286238
0.02622316285
0.02296620953
0.01981024131
0.01671640629
0.01375022459
0.01092095468
0.008427173135
0.006271345909
0.004492761222
0.0030754937
0.002032548139
0.001295835567
0.00080208661
0.0004861507615
0.0002908908817
0.0001731400796
0.0001024553678
6.101283287e-05
3.631823794e-05
2.175778844e-05
1.307985629e-05
7.889911041e-06
4.777227182e-06
2.908168972e-06
1.763531774e-06
1.06545681e-06
6.452003339e-07
3.917565958e-07
2.385661721e-07
1.457180546e-07
8.925877568e-08
5.480505388e-08
3.369820719e-08
2.073309317e-08
1.301361798e-08
8.224709581e-09
5.173062979e-09
3.275672935e-09
2.089151057e-09
1.342119939e-09
8.683848087e-10
5.657394314e-10
3.713831161e-10
2.451855814e-10
1.628446256e-10
1.087602436e-10
7.300916115e-11
4.923477676e-11
3.333664645e-11
2.265125721e-11
1.543659197e-11
1.054570241e-11
7.218594145e-12
4.948633325e-12
3.396189879e-12
2.332425661e-12
1.602449938e-12
1.101005617e-12
7.563198127e-13
5.193121587e-13
3.563421002e-13
2.44309835e-13
1.673320376e-13
1.144772193e-13
7.821777636e-14
5.336897562e-14
3.636007949e-14
2.473277876e-14
1.679561424e-14
1.138567895e-14
7.704224435e-15
5.203239586e-15
3.507212253e-15
2.359184605e-15
1.583584043e-15
1.060635281e-15
7.087635381e-16
4.725076364e-16
3.142286631e-16
2.084303129e-16
1.378739216e-16
9.092480078e-17
5.974156279e-17
3.911353359e-17
2.552066882e-17
1.659620796e-17
1.075729677e-17
6.95038416e-18
4.477309509e-18
2.87741937e-18
1.84821484e-18
1.186489469e-18
7.606052044e-19
4.866241176e-19
3.105232971e-19
1.974939204e-19
1.250893946e-19
7.882859203e-20
4.936884771e-20
3.068504036e-20
1.889493833e-20
1.150053202e-20
6.897617181e-21
4.058629232e-21
2.327510899e-21
1.287090611e-21
6.734155521e-22
3.204935932e-22
1.247229495e-22
2.206014542e-23
0
0
0
0
0
0
0
0
0
0
0
0
0
0
0
0
0
0
0
0
0
0
0
0
0
0
0
0
0
4.499108897e-29
2.201637396e-28
2.758723907e-28
2.712974043e-28
2.398545548e-28
1.996262813e-28
1.597702911e-28
1.244002977e-28
9.489555895e-29
7.12456853e-29
5.281140842e-29
3.87377483e-29
2.816468482e-29
2.032316469e-29
1.456872442e-29
1.038319983e-29
7.361792932e-30
5.1949075e-30
3.649581636e-30
2.552744901e-30
1.777107639e-30
1.229759974e-30
8.451652811e-31
5.773258101e-31
3.922091373e-31
2.651109649e-31
1.78359958e-31
1.194630729e-31
7.967301211e-32
5.2914848e-32
3.499917012e-32
2.305474593e-32
1.512475751e-32
9.88249582e-33
6.432968888e-33
4.175575533e-33
2.709799592e-33
1.760988103e-33
1.145869666e-33
7.464008754e-34
4.864377499e-34
3.167487562e-34
2.05375479e-34
1.324051707e-34
8.481542147e-35
5.393690638e-35
3.401530658e-35
2.124426812e-35
1.311572331e-35
7.98416941e-36
4.775139576e-36
2.790702319e-36
1.580103156e-36
8.540317631e-37
4.280722683e-37
1.855820014e-37
5.344365826e-38
0
0
0
0
0
0
0
0
0
0
0
0
0
0
0
0
0
0
0
0
0
0
0
0
0
0
0
0
0
0
0
0
0
0
0
4.540012701e-44
6.350946618e-44
6.481098184e-44
5.831267766e-44
4.89802046e-44
3.938530552e-44
3.072522837e-44
2.34400176e-44
1.757744256e-44
1.300226401e-44
9.511420791e-45
6.893727967e-45
4.957842244e-45
3.542270681e-45
2.516794984e-45
1.779907824e-45
1.253974736e-45
8.807799526e-46
6.172966481e-46
4.319461297e-46
3.019334006e-46
2.109767281e-46
1.474170496e-46
1.031872374e-46
7.246884919e-47
5.056071896e-47
3.533176109e-47
2.461260609e-47
1.71634024e-47
1.200826478e-47
8.473732707e-48
6.103744057e-48
4.406348167e-48
3.165105779e-48
2.385401464e-48
1.699483536e-48
1.249269718e-48
9.764789633e-49
7.432786128e-49
5.461523732e-49
4.324670216e-49
3.018476289e-49
2.172949066e-49
1.585571519e-49
1.166301902e-49
8.859208215e-50
7.246081046e-50
6.448546502e-50
6.490713616e-50
7.526249836e-50
9.092712053e-50
6.898305767e-50
5.825975093e-50
4.536265861e-50
3.049280466e-50
2.06859423e-50
1.435958753e-50
1.041508609e-50
8.131144095e-51
6.904125098e-51
6.349406317e-51
5.590690703e-51
5.550418946e-51
4.274880236e-51
3.454462754e-51
3.127076516e-51
3.215385194e-51
3.907880741e-51
3.406104008e-51
2.827779766e-51
2.62374041e-51
2.859234296e-51
1.979122211e-51
1.410364843e-51
1.032923815e-51
7.822525153e-52
6.056365454e-52
5.416097206e-52
4.376266745e-52
3.84058077e-52
4.129687725e-52
3.645943464e-52
3.92289623e-52
3.039042815e-52
2.84100684e-52
3.435837061e-52
3.915543262e-52
3.027617884e-52
2.734091055e-52
2.514259502e-52
2.50680841e-52
2.34629132e-52
2.343134977e-52
2.139827005e-52
2.337035637e-52
2.631018323e-52
2.276355976e-52
1.713724667e-52
1.439437037e-52
1.426445738e-52
1.444065826e-52
1.28873825e-52
1.135279375e-52
1.077366815e-52
1.013810814e-52
1.037759084e-52
9.62883573e-53
8.262150261e-53
7.548305786e-53
6.783865577e-53
6.438068743e-53
5.664045205e-53
5.265057027e-53
4.668133788e-53
4.509139772e-53
4.386227871e-53
4.395686319e-53
4.149343066e-53
3.744317855e-53
3.505260502e-53
3.31258812e-53
3.061571611e-53
2.827021822e-53
2.605650408e-53
2.382295831e-53
2.207012125e-53
2.061006648e-53
1.970598657e-53
1.901921444e-53
1.827660334e-53
1.728592373e-53
1.629990203e-53
1.541909545e-53
1.455853222e-53
1.3727548e-53
1.283827947e-53
1.221929201e-53
1.146499878e-53
1.080811254e-53
1.016596089e-53
9.582708613e-54
9.021072579e-54
8.531043973e-54
8.061378797e-54
7.629324551e-54
7.197666581e-54
6.81927843e-54
6.440446507e-54
6.099612409e-54
5.77292047e-54
5.455224273e-54
5.15688022e-54
4.875238268e-54
4.597893711e-54
4.340061679e-54
4.093728162e-54
3.868298172e-54
3.662061926e-54
3.465074355e-54
3.282712058e-54
3.106257386e-54
2.939648706e-54
2.781145281e-54
2.629316396e-54
2.490196135e-54
2.35700358e-54
2.231716907e-54
2.111876608e-54
1.999244614e-54
1.891706229e-54
1.790566614e-54
1.695820653e-54
1.606438171e-54
1.521891105e-54
1.441789536e-54
1.36570085e-54
1.293481907e-54
1.225209825e-54
1.160726177e-54
1.099646326e-54
1.041496681e-54
9.867212356e-55
9.351728759e-55
8.865155246e-55
8.402196714e-55
7.965236113e-55
7.551667186e-55
7.160694151e-55
6.788374128e-55
6.437413615e-55
6.105425837e-55
5.791955603e-55
5.494893905e-55
5.211537101e-55
4.944264231e-55
4.689779715e-55
4.448204395e-55
4.217934115e-55
4.000693171e-55
3.794954176e-55
3.598296385e-55
3.412682248e-55
3.238686539e-55
3.074122698e-55
2.91759423e-55
2.767928649e-55
2.627310655e-55
2.493647618e-55
2.367111081e-55
2.247857705e-55
2.134130187e-55
2.026230923e-55
1.924175175e-55
1.828084608e-55
1.736530071e-55
1.649135531e-55
1.565771109e-55
1.486611966e-55
1.411456919e-55
1.340358863e-55
1.272479366e-55
1.20840776e-55
1.147788961e-55
1.089882491e-55
1.035297817e-55
9.837772052e-56
9.343826371e-56
8.874044095e-56
8.430982696e-56
8.010539906e-56
7.608060178e-56
7.225285351e-56
6.863024132e-56
6.522574989e-56
6.198630081e-56
5.890749015e-56
5.599332138e-56
5.323794207e-56
5.059659659e-56
4.808506435e-56
4.568025515e-56
4.340471073e-56
4.126432042e-56
3.925037273e-56
3.733164648e-56
3.547074741e-56
3.372582549e-56
3.204586357e-56
3.043569104e-56
2.892588064e-56
2.746980284e-56
2.609529996e-56
2.480177346e-56
2.359146106e-56
2.242528485e-56
2.133045779e-56
2.029482099e-56
1.929723829e-56
1.835142476e-56
1.746073703e-56
1.659801924e-56
1.579458691e-56
1.502999033e-56
1.428575778e-56
1.357015853e-56
1.291654951e-56
1.228295726e-56
1.167297751e-56
1.109376398e-56
1.055445072e-56
1.003606449e-56
9.54867229e-57
9.084346201e-57
8.650773673e-57
8.236194356e-57
7.833774345e-57
7.455761885e-57
7.088115214e-57
6.737406977e-57
6.410622259e-57
6.091041836e-57
5.787505741e-57
5.506919721e-57
5.237032839e-57
4.98545532e-57
4.738781719e-57
4.501419167e-57
4.277563904e-57
4.063819122e-57
3.856123871e-57
3.665248677e-57
3.484037228e-57
3.314095054e-57
3.155076862e-57
3.002687171e-57
2.852425737e-57
2.709157632e-57
2.575672802e-57
2.444640088e-57
2.320799927e-57
2.207368749e-57
2.092708632e-57
1.985634967e-57
1.882579232e-57
1.788369182e-57
1.700817344e-57
9.965660848e-58
5.146770724e-58
2.691725397e-58
1.310337974e-58
6.36316085e-59
3.200466132e-59
1.683090583e-59
8.516359256e-60
4.0714041e-60
2.113372252e-60
9.092495626e-61
4.210883487e-61
2.738419534e-61
1.638018163e-61
5.888102301e-62
2.908118315e-62
9.978284374e-64
4.647980382e-63
8.538238094e-63
5.333443962e-63
8.14497883e-64
4.466895134e-65
5.011801887e-64
1.769101535e-64
1.943487672e-64
3.42272845e-65
1.107878814e-65
2.816226432e-65
1.80635555e-66
2.905744387e-66
1.025631967e-66
1.52228139e-66
4.435645299e-67
3.107110783e-68
1.472248001e-67
3.260928225e-67
0
2.608169686e-68
1.108037045e-68
9.376669468e-68
0
6.87904329e-68
2.409048676e-68
0
0
1.702906586e-68
5.219464432e-70
0
7.756918706e-70
0
1.026047535e-69
2.44347118e-69
1.021658644e-70
0
1.33788777e-72
1.132460104e-71
4.92036767e-71
2.23123173e-70
9.644092505e-71
4.898859851e-71
2.208702296e-72
4.43753839e-71
0
0
0
9.860507528e-73
2.817530091e-73
3.585328008e-75
0
2.473977661e-73
1.104269648e-73
0
2.140225156e-74
1.748358099e-73
8.31476962e-74
0
4.162969323e-76
1.038936403e-74
0
0
1.873924738e-74
3.904185209e-75
1.389845502e-75
3.425640058e-76
0
0
1.150717917e-76
9.926116775e-77
1.23151255e-76
0
2.539919658e-78
7.749166426e-78
2.584420748e-79
8.852329474e-79
5.457621773e-79
2.376988301e-80
5.743932637e-79
9.516609642e-79
1.60548154e-80
1.540691476e-80
4.368550518e-82
3.188615189e-81
5.713047414e-81
1.013474354e-80
0
0
0
0
1.13705325e-81
1.507493947e-81
3.770382439e-83
0
2.673299325e-82
7.916912784e-82
3.294426126e-82
3.94321173e-82
4.192762835e-82
0
3.028997015e-82
1.690245629e-82
9.430572435e-82
2.823642003e-83
4.020955775e-84
1.928933892e-83
1.82519616e-82
0
2.50609059e-83
0
1.754652847e-83
0
0
0
4.134764816e-82
3.732873812e-82
1.624884069e-82
6.112014589e-83
1.399676348e-83
8.317203352e-83
2.125278565e-84
1.142289236e-81
0
1.2284657e-81
3.477121058e-83
1.068736566e-81
0
1.231818538e-82
1.770839424e-81
1.545422756e-81
2.216936266e-83
2.073936976e-81
0
1.481828598e-82
3.870908769e-82
3.454990689e-81
0
4.462629513e-82
1.321461669e-81
2.678322794e-81
4.784791881e-81
3.002781044e-81
0
5.678990688e-81
2.128909952e-81
2.550106135e-83
3.984760947e-81
5.184533319e-83
2.15654327e-81
9.565002867e-82
8.479110011e-82
3.825354214e-81
3.039448972e-81
2.838450673e-81
2.659691326e-81
0
3.79381425e-81
2.119736788e-81
3.533333429e-81
1.87657898e-81
2.488783259e-81
1.513383471e-83
0
5.670581694e-84
2.923739854e-81
1.999681884e-81
4.102464146e-81
2.80113356e-84
7.736515448e-84
1.375897766e-81
3.179324647e-82
5.370163798e-81
3.772243168e-81
4.436638468e-81
3.477533297e-83
3.169265474e-82
3.690713554e-82
3.779388834e-81
2.544876746e-81
1.432026042e-81
2.114591363e-83
3.065989984e-81
1.889988828e-81
0
3.295842344e-81
2.109976639e-81
2.652785583e-81
1.879630998e-81
1.594624983e-81
3.591172775e-82
9.552891315e-82
8.406128523e-84
1.660538761e-84
0
4.845900007e-82
1.478334428e-81
3.521204838e-81
1.775197444e-81
1.186758974e-83
1.022828972e-81
1.531293977e-82
1.749655916e-84
1.365917965e-81
1.336490073e-81
4.639189914e-82
4.546721109e-82
6.10413363e-84
4.148347838e-82
0
3.132968668e-83
1.002578169e-83
4.435644394e-82
3.452715532e-82
4.211535736e-84
3.198200906e-82
4.069908667e-83
5.732217085e-82
0
1.005806651e-83
4.243652792e-82
1.43755522e-82
0
0
1.410782828e-81
1.748162775e-81
4.914061921e-82
4.229164979e-82
0
1.950430798e-82
2.296380617e-84
1.235909183e-83
2.479176608e-81
)
;

boundaryField
{
    inlet
    {
        type            fixedValue;
        value           uniform 0;
    }
    outlet
    {
        type            zeroGradient;
    }
    wall
    {
        type            empty;
    }
}


// ************************************************************************* //
