/*--------------------------------*- C++ -*----------------------------------*\
  =========                 |
  \\      /  F ield         | OpenFOAM: The Open Source CFD Toolbox
   \\    /   O peration     | Website:  https://openfoam.org
    \\  /    A nd           | Version:  7
     \\/     M anipulation  |
\*---------------------------------------------------------------------------*/
FoamFile
{
    version     2.0;
    format      ascii;
    class       volScalarField;
    location    "0.000558243009";
    object      C7H14OOH_0;
}
// * * * * * * * * * * * * * * * * * * * * * * * * * * * * * * * * * * * * * //

dimensions      [0 0 0 0 0 0 0];

internalField   nonuniform List<scalar> 
1500
(
1.183870864e-30
1.066547594e-30
9.217505039e-31
7.930043288e-31
7.047240711e-31
6.532026637e-31
6.2650112e-31
6.140387653e-31
6.087673836e-31
6.067168976e-31
6.059471436e-31
6.056284949e-31
6.054515261e-31
6.053179745e-31
6.052038796e-31
6.051063622e-31
6.050258439e-31
6.049615486e-31
6.049113757e-31
6.048727979e-31
6.048436146e-31
6.04822271e-31
6.048077988e-31
6.047995545e-31
6.047969282e-31
6.047991396e-31
6.048051687e-31
6.048138045e-31
6.048237671e-31
6.048338487e-31
6.048430306e-31
6.048505509e-31
6.04855922e-31
6.048589061e-31
6.048594683e-31
6.048577231e-31
6.048538864e-31
6.048482374e-31
6.048410922e-31
6.048327859e-31
6.048236605e-31
6.048140521e-31
6.048042777e-31
6.047946199e-31
6.047853128e-31
6.047765313e-31
6.047683851e-31
6.047609195e-31
6.047541231e-31
6.047479393e-31
6.047422813e-31
6.047370488e-31
6.047321422e-31
6.047274753e-31
6.047229843e-31
6.04718633e-31
6.047144152e-31
6.047103535e-31
6.047064968e-31
6.047029154e-31
6.04699696e-31
6.04696936e-31
6.046947382e-31
6.046932049e-31
6.046924331e-31
6.046925089e-31
6.046935032e-31
6.046954665e-31
6.046984261e-31
6.047023826e-31
6.047073081e-31
6.047131457e-31
6.047198092e-31
6.047271858e-31
6.047351382e-31
6.04743509e-31
6.047521257e-31
6.047608055e-31
6.047693615e-31
6.047776081e-31
6.047853667e-31
6.047924706e-31
6.047987699e-31
6.048041348e-31
6.048084588e-31
6.048116612e-31
6.048136877e-31
6.048145112e-31
6.048141316e-31
6.048125745e-31
6.048098904e-31
6.048061524e-31
6.048014541e-31
6.047959068e-31
6.047896365e-31
6.047827803e-31
6.047754828e-31
6.047678919e-31
6.047601553e-31
6.047524157e-31
6.047448074e-31
6.047374523e-31
6.047304564e-31
6.047239071e-31
6.047178707e-31
6.047123914e-31
6.047074903e-31
6.047031661e-31
6.046993964e-31
6.046961402e-31
6.046933411e-31
6.046909305e-31
6.046888326e-31
6.046869682e-31
6.046852589e-31
6.046836316e-31
6.046820215e-31
6.046803752e-31
6.04678652e-31
6.046768257e-31
6.046748839e-31
6.046728277e-31
6.046706701e-31
6.04668434e-31
6.046661498e-31
6.046638529e-31
6.046615814e-31
6.046593736e-31
6.046572666e-31
6.046552944e-31
6.046534879e-31
6.046518737e-31
6.046504753e-31
6.04649313e-31
6.04648405e-31
6.046477688e-31
6.046474214e-31
6.046473812e-31
6.046476677e-31
6.046483024e-31
6.046493085e-31
6.046507102e-31
6.046525319e-31
6.046547972e-31
6.04657527e-31
6.046607381e-31
6.046644415e-31
6.04668641e-31
6.046733318e-31
6.046784992e-31
6.046841187e-31
6.046901552e-31
6.046965636e-31
6.047032894e-31
6.047102703e-31
6.047174372e-31
6.047247163e-31
6.047320309e-31
6.047393032e-31
6.047464564e-31
6.047534163e-31
6.047601124e-31
6.047664795e-31
6.047724578e-31
6.047779936e-31
6.047830393e-31
6.047875529e-31
6.047914978e-31
6.047948421e-31
6.047975582e-31
6.047996223e-31
6.048010141e-31
6.048017171e-31
6.048017186e-31
6.048010101e-31
6.047995885e-31
6.047974571e-31
6.047946266e-31
6.047911171e-31
6.047869592e-31
6.04782196e-31
6.04776885e-31
6.047710994e-31
6.047649296e-31
6.047584842e-31
6.047518895e-31
6.047452892e-31
6.047388419e-31
6.047327172e-31
6.047270907e-31
6.047221374e-31
6.047180241e-31
6.047149013e-31
6.047128957e-31
6.047121034e-31
6.047125858e-31
6.047143675e-31
6.047174385e-31
6.047217591e-31
6.047272673e-31
6.047338887e-31
6.047415457e-31
6.047501662e-31
6.04759687e-31
6.047700538e-31
6.047812132e-31
6.047930996e-31
6.048056162e-31
6.048186141e-31
6.048318716e-31
6.048450802e-31
6.04857841e-31
6.048696764e-31
6.048800608e-31
6.048884714e-31
6.04894457e-31
6.048977207e-31
6.048982076e-31
6.048961867e-31
6.048923128e-31
6.048876555e-31
6.048836816e-31
6.048821818e-31
6.048851372e-31
6.048945276e-31
6.049120937e-31
6.049390713e-31
6.049759254e-31
6.050221169e-31
6.050759389e-31
6.051344593e-31
6.051935995e-31
6.052483719e-31
6.052932822e-31
6.053228873e-31
6.053324755e-31
6.053188181e-31
6.052809211e-31
6.052206913e-31
6.051434232e-31
6.050580171e-31
6.049768462e-31
6.049152214e-31
6.048904277e-31
6.049203852e-31
6.0502201e-31
6.05209464e-31
6.054916996e-31
6.058657807e-31
6.062880514e-31
6.064307346e-31
6.064707683e-31
6.065088403e-31
6.065471329e-31
6.065859179e-31
6.066252254e-31
6.06665058e-31
6.067054178e-31
6.067463081e-31
6.067877334e-31
6.068296982e-31
6.06872207e-31
6.069152645e-31
6.069588752e-31
6.070030439e-31
6.070477757e-31
6.07093076e-31
6.071389508e-31
6.071854065e-31
6.072324498e-31
6.072800883e-31
6.073283301e-31
6.073771838e-31
6.074266588e-31
6.074767651e-31
6.075275136e-31
6.075789159e-31
6.076309846e-31
6.076837331e-31
6.077371757e-31
6.077913281e-31
6.078462068e-31
6.079018297e-31
6.079582157e-31
6.080153852e-31
6.080733602e-31
6.08132164e-31
6.081918215e-31
6.082523594e-31
6.083138062e-31
6.083761923e-31
6.084395502e-31
6.085039145e-31
6.085693221e-31
6.086358125e-31
6.087034275e-31
6.08772212e-31
6.088422134e-31
6.089134826e-31
6.089860735e-31
6.090600437e-31
6.091354543e-31
6.092123705e-31
6.092908614e-31
6.093710008e-31
6.094528672e-31
6.095365438e-31
6.096221195e-31
6.097096886e-31
6.097993514e-31
6.098912146e-31
6.09985392e-31
6.100820041e-31
6.101811796e-31
6.102830551e-31
6.103877763e-31
6.104954978e-31
6.106063845e-31
6.10720612e-31
6.10838367e-31
6.109598485e-31
6.110852685e-31
6.11214853e-31
6.113488427e-31
6.114874942e-31
6.116310812e-31
6.117798958e-31
6.119342496e-31
6.120944749e-31
6.122609269e-31
6.124339848e-31
6.126140537e-31
6.128015665e-31
6.12996986e-31
6.132008072e-31
6.134135594e-31
6.13635809e-31
6.138681624e-31
6.141112686e-31
6.143658226e-31
6.146325689e-31
6.149123051e-31
6.152058862e-31
6.155142282e-31
6.158383132e-31
6.161791945e-31
6.165380011e-31
6.169159443e-31
6.173143229e-31
6.177345302e-31
6.181780607e-31
6.186465174e-31
6.191416197e-31
6.196652121e-31
6.202192725e-31
6.20805922e-31
6.214274352e-31
6.220862502e-31
6.227849806e-31
6.23526427e-31
6.243135901e-31
6.251496834e-31
6.26038148e-31
6.269826668e-31
6.279871807e-31
6.290559044e-31
6.30193344e-31
6.314043149e-31
6.326939603e-31
6.340677714e-31
6.355316073e-31
6.370917164e-31
6.387547587e-31
6.405278286e-31
6.424184785e-31
6.444347432e-31
6.465851654e-31
6.48878821e-31
6.513253466e-31
6.539349658e-31
6.567185174e-31
6.596874837e-31
6.628540193e-31
6.662309799e-31
6.698319519e-31
6.73671282e-31
6.777641069e-31
6.82126383e-31
6.867749155e-31
6.917273885e-31
6.970023932e-31
7.026194568e-31
7.085990696e-31
7.149627125e-31
7.217328824e-31
7.289331174e-31
7.365880194e-31
7.447232769e-31
7.533656842e-31
7.625431604e-31
7.722847651e-31
7.826207122e-31
7.935823816e-31
8.052023277e-31
8.17514285e-31
8.305531712e-31
8.443550864e-31
8.589573092e-31
8.743982893e-31
8.907176355e-31
9.079561012e-31
9.261555641e-31
9.453590033e-31
9.656104704e-31
9.869550576e-31
1.00943886e-30
1.033108936e-30
1.058013255e-30
1.084200655e-30
1.111720779e-30
1.140624018e-30
1.170961444e-30
1.202784742e-30
1.236146134e-30
1.271098299e-30
1.307694292e-30
1.345987455e-30
1.386031326e-30
1.427879542e-30
1.471585742e-30
1.517203468e-30
1.564786053e-30
1.614386518e-30
1.666057463e-30
1.719850953e-30
1.775818405e-30
1.834010473e-30
1.894476936e-30
1.95726658e-30
2.022427082e-30
2.090004898e-30
2.160045147e-30
2.232591504e-30
2.307686083e-30
2.385369336e-30
2.465679946e-30
2.54865473e-30
2.634328538e-30
2.722734163e-30
2.813902257e-30
2.907861246e-30
3.004637257e-30
3.104254047e-30
3.206732943e-30
3.312092783e-30
3.420349874e-30
3.531517947e-30
3.645608126e-30
3.76262891e-30
3.882586149e-30
4.005483047e-30
4.13132016e-30
4.260095413e-30
4.391804118e-30
4.526439007e-30
4.663990278e-30
4.80444564e-30
4.947790378e-30
5.094007425e-30
5.243077441e-30
5.394978905e-30
5.549688216e-30
5.707179807e-30
5.867426261e-30
6.030398449e-30
6.196065665e-30
6.36439578e-30
6.535355406e-30
6.708910061e-30
6.885024357e-30
7.063662187e-30
7.24478693e-30
7.428361661e-30
7.614349376e-30
7.802713225e-30
7.993416755e-30
8.186424169e-30
8.381700591e-30
8.579212348e-30
8.778927262e-30
8.980814955e-30
9.184847166e-30
9.39099809e-30
9.59924472e-30
9.809567215e-30
1.002194928e-29
1.023637856e-29
1.045284705e-29
1.067135157e-29
1.089189417e-29
1.111448261e-29
1.133913091e-29
1.156585984e-29
1.179469744e-29
1.202567967e-29
1.225885093e-29
1.249426477e-29
1.273198447e-29
1.297208383e-29
1.321464782e-29
1.345977348e-29
1.370757081e-29
1.395816002e-29
1.421162226e-29
1.44681761e-29
1.47280412e-29
1.499145832e-29
1.525853011e-29
1.55294569e-29
1.580447842e-29
1.608385766e-29
1.636788188e-29
1.665686326e-29
1.695113971e-29
1.725107675e-29
1.755706916e-29
1.786954333e-29
1.818899253e-29
1.851607421e-29
1.885118906e-29
1.919486741e-29
1.954769822e-29
1.991025502e-29
2.028321923e-29
2.066735047e-29
2.106341585e-29
2.147222533e-29
2.18946376e-29
2.233156186e-29
2.278395978e-29
2.32528474e-29
2.373929726e-29
2.424444042e-29
2.476946861e-29
2.531563642e-29
2.588426345e-29
2.64767366e-29
2.709451232e-29
2.773911893e-29
2.841215903e-29
2.911531192e-29
2.985033608e-29
3.061907175e-29
3.142344355e-29
3.226546324e-29
3.314723252e-29
3.407094598e-29
3.503889415e-29
3.605346676e-29
3.711715606e-29
3.823256042e-29
3.940238807e-29
4.062946115e-29
4.19167199e-29
4.326722732e-29
4.468417397e-29
4.617088325e-29
4.773081707e-29
4.936758194e-29
5.108493553e-29
5.288679384e-29
5.477723889e-29
5.676052713e-29
5.884109845e-29
6.10235861e-29
6.331282732e-29
6.571387499e-29
6.823201015e-29
7.087275577e-29
7.364189147e-29
7.654546969e-29
7.958983315e-29
8.278163381e-29
8.612785352e-29
8.963582644e-29
9.331326353e-29
9.716827919e-29
1.012094206e-28
1.054456999e-28
1.098866297e-28
1.145422631e-28
1.194232382e-28
1.245408286e-28
1.299070026e-28
1.355344911e-28
1.414368689e-28
1.476286535e-28
1.541254262e-28
1.609439844e-28
1.681025365e-28
1.756209544e-28
1.835211073e-28
1.918273068e-28
2.00566908e-28
2.097711282e-28
2.194761712e-28
2.297247797e-28
2.405683893e-28
2.520701297e-28
2.643090192e-28
2.773858409e-28
2.914313934e-28
3.066180922e-28
3.23176308e-28
3.414174013e-28
3.617662315e-28
3.848070801e-28
4.113485774e-28
4.425155703e-28
4.798792132e-28
5.256413306e-28
5.828959035e-28
6.5600026e-28
7.511024654e-28
8.768913715e-28
1.045664442e-27
1.274849726e-27
1.589177845e-27
2.023785863e-27
2.628659587e-27
3.47500208e-27
4.664380457e-27
6.341889823e-27
8.715141315e-27
1.208171916e-26
1.686899318e-26
2.369202125e-26
3.343804223e-26
4.739022212e-26
6.740961872e-26
9.620393384e-26
1.377263598e-25
1.977706094e-25
2.84863715e-25
4.116139526e-25
5.967596452e-25
8.683060342e-25
1.268365934e-24
1.860692994e-24
2.742512246e-24
4.06328087e-24
6.054749768e-24
9.079670257e-24
1.371164706e-23
2.086770585e-23
3.20313178e-23
4.963291355e-23
7.770879852e-23
1.230601337e-22
1.973252266e-22
3.20749238e-22
5.291662864e-22
8.871767607e-22
1.513507688e-21
2.630818764e-21
4.665585367e-21
8.452760749e-21
1.566445427e-20
2.972811964e-20
5.783811507e-20
1.154633767e-19
2.366778009e-19
4.98361989e-19
1.078125744e-18
2.395787055e-18
5.465592307e-18
1.27884954e-17
3.064771621e-17
7.509241955e-17
1.876991781e-16
4.774044562e-16
1.232030233e-15
3.21599221e-15
8.46350449e-15
2.238170215e-14
5.928552702e-14
1.56828153e-13
4.13235222e-13
1.082406621e-12
2.814744621e-12
7.263518774e-12
1.860819397e-11
4.738403611e-11
1.201229229e-10
3.035838995e-10
7.651118263e-10
1.920010549e-09
4.776493458e-09
1.172451316e-08
2.807273739e-08
6.539934394e-08
1.460863118e-07
3.085905525e-07
5.915252653e-07
1.025137178e-06
1.555478184e-06
1.989970274e-06
2.069852534e-06
1.723472136e-06
1.182604577e-06
7.139089974e-07
4.04892323e-07
2.248285257e-07
1.245698814e-07
6.829035791e-08
3.830977659e-08
2.179061888e-08
1.257027476e-08
7.247729299e-09
4.237660674e-09
2.481753827e-09
1.451202266e-09
8.466631947e-10
4.930911599e-10
2.869573674e-10
1.67231743e-10
9.786222202e-11
5.767530693e-11
3.43013886e-11
2.053997344e-11
1.244749958e-11
7.579325749e-12
4.666975888e-12
2.894366931e-12
1.806711133e-12
1.134698218e-12
7.172748978e-13
4.542120671e-13
2.867154062e-13
1.814117653e-13
1.150264074e-13
7.305865697e-14
4.646913329e-14
2.959529e-14
1.886812809e-14
1.203453337e-14
7.673600546e-15
4.944974438e-15
3.189981667e-15
2.046294026e-15
1.31406279e-15
8.443773017e-16
5.426562483e-16
3.486589574e-16
2.238796191e-16
1.436893581e-16
9.210599058e-17
5.897378252e-17
3.771211613e-17
2.408246925e-17
1.535565716e-17
9.775346699e-18
6.212125734e-18
3.940383955e-18
2.494424087e-18
1.575706405e-18
9.930914917e-19
6.243713612e-19
3.915267732e-19
2.448290487e-19
1.526362138e-19
9.48519002e-20
5.873779506e-20
3.623666559e-20
2.226370267e-20
1.361774066e-20
8.288713268e-21
5.017989995e-21
3.019828336e-21
1.805289159e-21
1.07118698e-21
6.302324191e-22
3.672065745e-22
2.11547011e-22
1.202535846e-22
6.726551713e-23
3.688426298e-23
1.971763645e-23
1.018966037e-23
5.019059282e-24
2.294539315e-24
9.160908204e-25
2.596654066e-25
0
0
0
0
0
0
0
0
0
0
0
1.404265977e-27
2.386228891e-27
2.668994099e-27
2.565287038e-27
2.274006663e-27
1.915044089e-27
1.555832824e-27
1.230455998e-27
9.527910198e-28
7.25200762e-28
5.440593909e-28
4.031263391e-28
2.955081581e-28
2.145000287e-28
1.543142725e-28
1.101210289e-28
7.800991535e-29
5.48958112e-29
3.839401907e-29
2.670351236e-29
1.847742948e-29
1.272476871e-29
8.721194529e-30
5.946952623e-30
4.030804134e-30
2.718349755e-30
1.825566421e-30
1.221619087e-30
8.148637733e-31
5.419458367e-31
3.595061532e-31
2.379791092e-31
1.573884588e-31
1.038125469e-31
6.861995187e-32
4.507610055e-32
2.972070192e-32
1.982848735e-32
1.290172181e-32
8.415980192e-33
5.45029292e-33
3.531937265e-33
2.305587741e-33
1.542833905e-33
1.010454168e-33
6.908348294e-34
5.216635128e-34
3.448340139e-34
2.324441429e-34
1.57205359e-34
1.040458397e-34
7.618316926e-35
6.634700359e-35
5.207759241e-35
4.217979869e-35
2.654771446e-35
1.663573003e-35
1.074380632e-35
7.575912166e-36
6.629952833e-36
7.764467979e-36
6.404361037e-36
7.024382958e-36
5.664043262e-36
6.087774162e-36
4.692385692e-36
4.692751311e-36
3.195353016e-36
2.553909132e-36
2.60025876e-36
3.098635442e-36
2.979797447e-36
2.097773062e-36
1.37749257e-36
9.478902654e-37
7.247491612e-37
5.654609388e-37
4.236429884e-37
3.741343523e-37
4.071277664e-37
4.810380294e-37
3.284933606e-37
2.432100045e-37
1.939669858e-37
1.537835992e-37
1.389333457e-37
1.479539512e-37
1.566998345e-37
1.24892584e-37
9.819273426e-38
9.328778546e-38
5.958293271e-38
4.148508236e-38
2.898820918e-38
2.278509649e-38
2.286669716e-38
1.680047529e-38
1.409589967e-38
1.415049467e-38
9.856717171e-39
6.901611416e-39
4.855819324e-39
3.76495424e-39
3.301886632e-39
3.380199242e-39
4.018839088e-39
5.488247671e-39
5.521331486e-39
3.923663823e-39
3.05359338e-39
2.842059114e-39
3.31346273e-39
2.897636923e-39
1.920518178e-39
1.349859566e-39
1.035680454e-39
9.214197826e-40
6.386059816e-40
4.769823702e-40
3.762839567e-40
2.734234839e-40
2.335035424e-40
2.508917596e-40
2.101411851e-40
2.212116454e-40
1.922427264e-40
1.885929475e-40
2.412983884e-40
2.603461248e-40
2.342425905e-40
1.894975326e-40
1.613107024e-40
1.547807372e-40
1.060779658e-40
8.343422823e-41
5.883050195e-41
4.665936358e-41
4.533639472e-41
2.931710578e-41
1.894377927e-41
1.298606937e-41
1.004684109e-41
9.512707516e-42
6.555403698e-42
5.087810675e-42
4.980523176e-42
6.303214158e-42
4.246958983e-42
3.270926541e-42
3.197223997e-42
4.129564027e-42
5.631844066e-42
7.488433985e-42
7.873456566e-42
7.502247046e-42
5.328370539e-42
3.431514431e-42
2.314316382e-42
1.698637866e-42
1.117152589e-42
7.912914503e-43
6.569074315e-43
6.626564075e-43
7.126494082e-43
4.831579715e-43
3.551001733e-43
3.155577832e-43
1.941015197e-43
1.155108942e-43
6.501673421e-44
3.436860367e-44
2.042101403e-44
1.60241104e-44
1.958090833e-44
3.229389907e-44
5.635753272e-44
6.5464105e-44
9.224073885e-44
7.801752939e-44
5.541805766e-44
4.427848357e-44
4.368473641e-44
4.901577146e-44
4.355605547e-44
3.547069658e-44
3.490242329e-44
2.751568144e-44
1.992298419e-44
1.633697857e-44
1.637454493e-44
1.169814238e-44
9.438376255e-45
8.650195582e-45
6.80330917e-45
4.415235824e-45
2.895826752e-45
1.964562996e-45
1.494572479e-45
1.385633033e-45
1.655005503e-45
1.926603755e-45
1.512812259e-45
1.455606704e-45
1.256949066e-45
9.659443838e-46
9.110392042e-46
5.954752967e-46
4.610559344e-46
4.933370249e-46
7.0660771e-46
4.889600104e-46
4.078981651e-46
3.211233374e-46
3.212445321e-46
3.061106105e-46
2.112385929e-46
1.680914843e-46
1.624768611e-46
1.126383653e-46
8.278988034e-47
6.620864458e-47
5.998731509e-47
4.752793e-47
4.154769689e-47
4.219231191e-47
4.849606634e-47
5.984701111e-47
5.148220127e-47
4.798774653e-47
4.997635621e-47
5.974298701e-47
4.086816479e-47
2.852481592e-47
2.104748704e-47
1.764296831e-47
1.196158342e-47
8.950934702e-48
8.174677047e-48
6.734290689e-48
7.172181357e-48
6.169738826e-48
4.088582314e-48
3.001943915e-48
2.2418828e-48
2.015299343e-48
2.274338122e-48
2.851441485e-48
2.941869537e-48
3.788832643e-48
3.035323345e-48
2.958745907e-48
2.412321837e-48
2.245067409e-48
1.804190627e-48
1.324411671e-48
1.135620905e-48
7.18307702e-49
4.512269844e-49
2.869467782e-49
2.007651061e-49
1.6131594e-49
1.515161019e-49
1.791852322e-49
1.381679213e-49
1.041034836e-49
8.587306554e-50
7.309546815e-50
6.406402769e-50
6.170373147e-50
7.007933662e-50
9.659562503e-50
1.094148916e-49
7.712113392e-50
5.392608345e-50
4.220179781e-50
3.310907055e-50
2.382542969e-50
1.891462656e-50
1.80602535e-50
2.199047353e-50
1.475684647e-50
1.083254875e-50
9.604295723e-51
1.115337729e-50
1.63730867e-50
1.20141946e-50
1.097473592e-50
9.61289764e-51
6.661951265e-51
4.934196292e-51
4.284714188e-51
3.48396374e-51
3.195643148e-51
3.451688639e-51
4.298288621e-51
4.558804358e-51
3.404792731e-51
2.883074712e-51
2.291037765e-51
2.112946998e-51
1.718053675e-51
1.410620002e-51
1.378862457e-51
1.494622219e-51
1.530413556e-51
1.357347607e-51
9.238424313e-52
6.543464807e-52
4.944660399e-52
4.06298545e-52
3.980733793e-52
3.23381333e-52
2.39029909e-52
1.832722207e-52
1.235331078e-52
8.419071789e-53
5.854614309e-53
4.365025291e-53
3.591219617e-53
3.339597488e-53
3.481752211e-53
4.144018025e-53
5.864990071e-53
6.908749055e-53
5.642295191e-53
5.884570829e-53
4.262012826e-53
3.619648783e-53
3.82915816e-53
5.071742871e-53
4.012953425e-53
3.874733379e-53
3.568230111e-53
2.523987975e-53
1.992680526e-53
1.742821594e-53
1.842415666e-53
1.456687873e-53
1.146695173e-53
1.070782114e-53
9.572746078e-54
6.683958971e-54
4.89575175e-54
4.223781134e-54
4.667396616e-54
4.641460518e-54
4.186854813e-54
3.507175129e-54
2.423932356e-54
1.873687677e-54
1.740594248e-54
1.434280031e-54
1.414664808e-54
1.218717271e-54
1.273466846e-54
1.144106637e-54
1.012528871e-54
6.87648095e-55
4.982522237e-55
4.143364071e-55
2.888295858e-55
2.236171078e-55
2.0039129e-55
1.268667047e-55
8.159481522e-56
5.3032347e-56
3.860604325e-56
3.520510023e-56
4.15997075e-56
6.026562203e-56
4.281164389e-56
3.560927346e-56
3.233466744e-56
3.653546016e-56
2.881670022e-56
2.025286678e-56
1.539538644e-56
1.389561993e-56
1.589919854e-56
1.285246245e-56
1.265797234e-56
1.524220297e-56
1.560318897e-56
1.984307806e-56
1.824422643e-56
1.2399933e-56
8.844390556e-57
6.875063638e-57
4.915964563e-57
4.00331915e-57
2.766974583e-57
2.062111227e-57
1.608557767e-57
1.382484543e-57
1.297207712e-57
1.131200696e-57
1.09194293e-57
1.219444237e-57
1.200282243e-57
1.047069188e-57
1.121368325e-57
1.468369366e-57
1.615206477e-57
1.255800119e-57
1.220643663e-57
8.495995349e-58
5.439273979e-58
3.522583953e-58
2.379815118e-58
1.769905935e-58
1.33639026e-58
1.209909352e-58
1.381143956e-58
1.14380988e-58
1.098201161e-58
1.252715347e-58
1.575336978e-58
1.11298818e-58
8.99938691e-59
6.482155683e-59
5.383769977e-59
5.571741908e-59
4.029910569e-59
3.274239114e-59
2.940232448e-59
2.215857508e-59
1.933261859e-59
2.10556829e-59
1.784825462e-59
1.522025117e-59
1.476241058e-59
1.401065699e-59
1.099706252e-59
1.031720563e-59
1.197596649e-59
8.223198989e-60
5.873062754e-60
4.402820847e-60
3.619838126e-60
3.50477583e-60
2.906343896e-60
2.284260865e-60
1.871486856e-60
1.543383411e-60
1.298653671e-60
1.093042819e-60
1.448500997e-61
3.922718361e-62
3.582404221e-62
3.385400693e-63
8.041969626e-64
5.885879374e-64
2.339598413e-64
7.226936343e-65
3.053536239e-65
1.927478162e-65
7.175095225e-66
3.676241258e-66
2.748373699e-66
1.995022965e-66
6.971902663e-67
1.990044569e-67
6.699522343e-68
1.844601206e-67
4.923268284e-68
2.777601629e-68
2.845768027e-68
6.676592828e-70
4.667532177e-69
5.406177305e-70
1.709577744e-70
0
3.087838432e-73
2.18797796e-71
5.750692986e-71
1.170705707e-71
8.438895671e-72
5.298771989e-71
1.346802589e-72
5.900029204e-74
0
2.422800737e-72
3.410372539e-72
8.046006016e-74
3.41210573e-74
0
1.962825103e-73
1.275328754e-73
1.153828127e-74
3.586367474e-73
1.518041397e-74
1.626279109e-73
0
2.075344817e-74
7.689158957e-74
1.158002219e-74
4.515071158e-74
1.670672427e-74
3.012949132e-76
2.547403971e-75
8.452173574e-75
7.372094944e-76
2.637807525e-76
0
5.542488199e-76
4.708887739e-76
5.823430139e-77
9.154997964e-77
4.441493502e-77
1.805107753e-78
1.138308095e-77
6.148332038e-78
1.11287056e-79
1.170326987e-79
8.230110781e-79
1.179618529e-78
9.528006865e-79
0
9.181383244e-79
5.754922832e-79
1.526704055e-79
1.846828342e-79
1.588166219e-79
1.941143633e-79
9.192902942e-80
1.708990909e-80
5.700735676e-81
2.803949361e-80
2.155534335e-80
4.424898516e-81
1.250268194e-81
0
1.977226728e-81
2.930039531e-82
4.107662528e-82
3.673136749e-83
4.007514876e-83
6.511796966e-83
5.481995735e-84
8.739406657e-84
1.446231576e-83
6.287566438e-86
1.352613493e-84
0
5.084212211e-88
2.413160257e-86
0
1.685496613e-85
1.11822943e-85
2.798257425e-86
4.289285111e-87
8.81743295e-89
3.966858636e-88
3.309949553e-87
6.021153737e-87
1.88350206e-86
1.811784604e-88
2.136705606e-87
7.050537081e-88
1.285695407e-86
4.816279084e-88
5.122479602e-89
7.074399637e-87
6.987073214e-88
3.103923285e-87
2.496836852e-87
7.491011244e-88
0
9.551958827e-88
1.098898322e-87
2.302644938e-87
2.164499504e-87
0
0
0
2.093293663e-87
3.438614475e-87
8.910507005e-87
6.978592172e-87
5.095038236e-87
3.945271236e-87
1.193828566e-86
0
7.325758501e-88
0
1.353515382e-86
1.277593331e-86
2.0342656e-88
0
8.458533771e-87
3.865605255e-88
4.816458964e-88
6.711210291e-87
7.973606452e-87
3.922946454e-88
9.200071312e-87
0
3.298966747e-87
4.966469654e-88
0
4.674797215e-87
9.871478303e-87
0
4.832744667e-89
2.365712775e-86
0
6.453245167e-87
0
0
8.025265997e-89
2.273337158e-86
2.37732535e-88
3.164099104e-86
5.711188233e-88
2.255775447e-88
3.177479918e-87
8.80652603e-87
1.827361553e-86
4.721040723e-87
2.15173143e-87
0
0
6.627658521e-87
4.323136687e-87
1.544257329e-88
1.673768585e-87
0
1.707998703e-88
5.57112319e-87
9.198580809e-89
6.066027668e-89
2.652641514e-87
1.116489932e-89
1.721467083e-86
7.140895465e-87
4.913186617e-87
8.574561823e-88
1.372033116e-87
1.497049441e-89
0
0
0
0
1.869927889e-86
1.040268218e-88
1.173936963e-87
2.852652103e-87
2.460856223e-87
7.589488242e-87
3.23653967e-87
0
5.862786079e-87
0
5.264195916e-87
2.596486294e-87
1.020043123e-87
4.298844289e-88
2.367252718e-88
2.262144453e-87
2.3402975e-89
0
2.461360687e-89
7.052347702e-88
7.270650036e-89
7.041302817e-89
5.011584086e-90
4.562192895e-89
2.480796527e-88
0
6.038235916e-92
4.698114051e-89
0
0
1.994333295e-89
0
7.567209601e-87
3.501730907e-88
8.829281036e-90
7.89066943e-88
0
0
0
3.379061353e-87
3.109491436e-87
0
1.688461173e-89
0
1.009924523e-87
2.307257769e-86
3.31943477e-87
1.247316505e-86
7.081049721e-87
6.66676679e-89
0
0
0
)
;

boundaryField
{
    inlet
    {
        type            fixedValue;
        value           uniform 0;
    }
    outlet
    {
        type            zeroGradient;
    }
    wall
    {
        type            empty;
    }
}


// ************************************************************************* //
