/*--------------------------------*- C++ -*----------------------------------*\
  =========                 |
  \\      /  F ield         | OpenFOAM: The Open Source CFD Toolbox
   \\    /   O peration     | Website:  https://openfoam.org
    \\  /    A nd           | Version:  7
     \\/     M anipulation  |
\*---------------------------------------------------------------------------*/
FoamFile
{
    version     2.0;
    format      ascii;
    class       volScalarField;
    location    "0.000558243009";
    object      C7H15_0;
}
// * * * * * * * * * * * * * * * * * * * * * * * * * * * * * * * * * * * * * //

dimensions      [0 0 0 0 0 0 0];

internalField   nonuniform List<scalar> 
1500
(
5.900363547e-26
2.131549312e-25
3.947918021e-25
5.311487421e-25
6.092155186e-25
6.472096783e-25
6.637307552e-25
6.70224853e-25
6.725146953e-25
6.732123137e-25
6.733592587e-25
6.733268127e-25
6.732382617e-25
6.731358269e-25
6.730368002e-25
6.729492625e-25
6.728763236e-25
6.728179374e-25
6.727723542e-25
6.727373205e-25
6.727108522e-25
6.726915417e-25
6.726785101e-25
6.726711709e-25
6.726689663e-25
6.726711841e-25
6.726768942e-25
6.726849933e-25
6.72694316e-25
6.727037624e-25
6.727124037e-25
6.727195447e-25
6.727247387e-25
6.727277662e-25
6.727285915e-25
6.727273149e-25
6.727241289e-25
6.727192835e-25
6.727130623e-25
6.727057665e-25
6.726977031e-25
6.726891742e-25
6.726804644e-25
6.726718275e-25
6.726634736e-25
6.726555591e-25
6.726481821e-25
6.72641383e-25
6.726351513e-25
6.726294362e-25
6.726241606e-25
6.726192355e-25
6.726145735e-25
6.726100999e-25
6.726057611e-25
6.726015288e-25
6.725974021e-25
6.725934069e-25
6.725895925e-25
6.725860282e-25
6.725827974e-25
6.725799935e-25
6.72577714e-25
6.72576056e-25
6.72575111e-25
6.725749602e-25
6.725756703e-25
6.725772892e-25
6.725798428e-25
6.725833323e-25
6.725877328e-25
6.725929921e-25
6.725990312e-25
6.726057464e-25
6.726130117e-25
6.726206825e-25
6.726286001e-25
6.726365965e-25
6.726445002e-25
6.726521405e-25
6.726593535e-25
6.726659861e-25
6.726719004e-25
6.726769774e-25
6.726811191e-25
6.72684251e-25
6.726863229e-25
6.726873093e-25
6.726872093e-25
6.726860453e-25
6.726838622e-25
6.726807254e-25
6.726767188e-25
6.726719423e-25
6.726665089e-25
6.726605416e-25
6.726541699e-25
6.726475264e-25
6.726407431e-25
6.726339476e-25
6.726272598e-25
6.726207883e-25
6.726146273e-25
6.726088542e-25
6.726035274e-25
6.725986854e-25
6.72594346e-25
6.725905067e-25
6.725871464e-25
6.725842271e-25
6.725816972e-25
6.725794945e-25
6.7257755e-25
6.725757922e-25
6.725741508e-25
6.7257256e-25
6.725709622e-25
6.725693098e-25
6.725675676e-25
6.72565713e-25
6.725637366e-25
6.725616412e-25
6.725594404e-25
6.72557157e-25
6.725548206e-25
6.725524657e-25
6.725501289e-25
6.725478473e-25
6.725456566e-25
6.725435901e-25
6.725416777e-25
6.725399459e-25
6.725384176e-25
6.725371133e-25
6.725360512e-25
6.725352484e-25
6.725347219e-25
6.725344893e-25
6.725345694e-25
6.725349823e-25
6.725357495e-25
6.725368933e-25
6.72538436e-25
6.725403987e-25
6.725428002e-25
6.725456552e-25
6.725489731e-25
6.725527563e-25
6.725569995e-25
6.725616882e-25
6.725667989e-25
6.725722983e-25
6.72578144e-25
6.725842852e-25
6.725906638e-25
6.725972155e-25
6.726038722e-25
6.726105629e-25
6.726172159e-25
6.726237607e-25
6.726301292e-25
6.726362572e-25
6.726420852e-25
6.72647559e-25
6.726526304e-25
6.726572566e-25
6.726614004e-25
6.726650295e-25
6.72668116e-25
6.726706361e-25
6.726725693e-25
6.726738984e-25
6.726746095e-25
6.726746918e-25
6.726741387e-25
6.726729478e-25
6.726711226e-25
6.726686729e-25
6.72665617e-25
6.726619826e-25
6.726578083e-25
6.726531459e-25
6.726480613e-25
6.726426358e-25
6.726369673e-25
6.726311699e-25
6.726253731e-25
6.726197202e-25
6.726143644e-25
6.726094643e-25
6.726051781e-25
6.726016561e-25
6.725990341e-25
6.725974259e-25
6.725969178e-25
6.72597564e-25
6.725993857e-25
6.726023725e-25
6.726064869e-25
6.726116718e-25
6.726178583e-25
6.726249755e-25
6.726329572e-25
6.72641746e-25
6.726512923e-25
6.726615478e-25
6.726724528e-25
6.726839197e-25
6.726958127e-25
6.727079302e-25
6.727199914e-25
6.727316328e-25
6.727424196e-25
6.727518735e-25
6.727595187e-25
6.727649452e-25
6.727678839e-25
6.727682866e-25
6.727664002e-25
6.727628236e-25
6.727585332e-25
6.727548671e-25
6.727534574e-25
6.727561085e-25
6.727646222e-25
6.727805807e-25
6.72805104e-25
6.728386082e-25
6.728805929e-25
6.729294936e-25
6.729826293e-25
6.730362761e-25
6.730858848e-25
6.731264487e-25
6.731530129e-25
6.731612953e-25
6.731483735e-25
6.731133746e-25
6.730580973e-25
6.729874941e-25
6.729099655e-25
6.728374501e-25
6.727853715e-25
6.7277255e-25
6.72821227e-25
6.729570687e-25
6.732083039e-25
6.736008636e-25
6.741421213e-25
6.74774903e-25
6.750286795e-25
6.750972501e-25
6.751629546e-25
6.752297763e-25
6.752982805e-25
6.753685844e-25
6.754407516e-25
6.755148453e-25
6.755909343e-25
6.756690926e-25
6.757493987e-25
6.758319349e-25
6.759167874e-25
6.760040464e-25
6.760938066e-25
6.761861672e-25
6.762812325e-25
6.76379112e-25
6.764799209e-25
6.765837802e-25
6.766908171e-25
6.768011654e-25
6.769149653e-25
6.770323646e-25
6.771535181e-25
6.772785886e-25
6.774077469e-25
6.775411726e-25
6.776790539e-25
6.778215884e-25
6.779689835e-25
6.781214568e-25
6.782792364e-25
6.784425616e-25
6.786116833e-25
6.787868644e-25
6.789683804e-25
6.791565202e-25
6.79351586e-25
6.795538946e-25
6.797637775e-25
6.799815818e-25
6.802076706e-25
6.804424238e-25
6.806862389e-25
6.809395313e-25
6.812027353e-25
6.814763048e-25
6.81760714e-25
6.820564582e-25
6.823640546e-25
6.82684043e-25
6.830169869e-25
6.833634739e-25
6.837241172e-25
6.840995559e-25
6.844904562e-25
6.848975123e-25
6.853214476e-25
6.85763015e-25
6.862229986e-25
6.867022145e-25
6.872015117e-25
6.877217731e-25
6.882639169e-25
6.888288975e-25
6.894177064e-25
6.900313738e-25
6.906709693e-25
6.913376033e-25
6.920324281e-25
6.92756639e-25
6.935114756e-25
6.942982232e-25
6.951182135e-25
6.959728263e-25
6.968634907e-25
6.977916861e-25
6.987589434e-25
6.997668469e-25
7.008170347e-25
7.019112005e-25
7.030510949e-25
7.042385263e-25
7.054753624e-25
7.067635316e-25
7.081050238e-25
7.095018921e-25
7.10956254e-25
7.124702922e-25
7.140462563e-25
7.156864638e-25
7.173933012e-25
7.191692254e-25
7.210167644e-25
7.229385191e-25
7.249371638e-25
7.270154473e-25
7.291761944e-25
7.314223065e-25
7.337567626e-25
7.361826204e-25
7.387030171e-25
7.413211702e-25
7.440403783e-25
7.468640222e-25
7.49795565e-25
7.528385533e-25
7.559966176e-25
7.592734729e-25
7.626729192e-25
7.661988419e-25
7.698552121e-25
7.736460873e-25
7.775756112e-25
7.816480143e-25
7.858676136e-25
7.902388132e-25
7.947661036e-25
7.994540624e-25
8.043073535e-25
8.093307273e-25
8.145290201e-25
8.19907154e-25
8.254701363e-25
8.312230589e-25
8.371710981e-25
8.433195133e-25
8.496736469e-25
8.56238923e-25
8.63020847e-25
8.700250041e-25
8.772570586e-25
8.847227528e-25
8.924279058e-25
9.003784121e-25
9.085802408e-25
9.170394336e-25
9.25762104e-25
9.347544353e-25
9.440226797e-25
9.535731562e-25
9.634122494e-25
9.735464077e-25
9.839821417e-25
9.947260224e-25
1.00578468e-24
1.017164801e-24
1.028873129e-24
1.040916459e-24
1.053301639e-24
1.066035569e-24
1.079125195e-24
1.092577512e-24
1.106399558e-24
1.120598418e-24
1.135181217e-24
1.150155123e-24
1.165527341e-24
1.181305117e-24
1.197495733e-24
1.214106506e-24
1.231144792e-24
1.248617979e-24
1.266533487e-24
1.284898775e-24
1.303721329e-24
1.323008673e-24
1.342768361e-24
1.363007982e-24
1.383735158e-24
1.404957549e-24
1.426682846e-24
1.448918781e-24
1.471673122e-24
1.494953681e-24
1.518768311e-24
1.54312491e-24
1.568031426e-24
1.593495859e-24
1.619526262e-24
1.64613075e-24
1.673317503e-24
1.701094767e-24
1.729470865e-24
1.7584542e-24
1.788053261e-24
1.818276633e-24
1.849133e-24
1.880631155e-24
1.912780012e-24
1.945588609e-24
1.979066123e-24
2.013221875e-24
2.048065348e-24
2.083606192e-24
2.119854243e-24
2.156819528e-24
2.194512288e-24
2.232942983e-24
2.272122318e-24
2.312061249e-24
2.352771005e-24
2.394263109e-24
2.436549388e-24
2.479642002e-24
2.523553455e-24
2.568296626e-24
2.613884783e-24
2.660331613e-24
2.707651239e-24
2.755858254e-24
2.804967738e-24
2.854995294e-24
2.905957069e-24
2.95786979e-24
3.010750789e-24
3.06461804e-24
3.119490187e-24
3.175386584e-24
3.232327325e-24
3.290333284e-24
3.349426155e-24
3.409628486e-24
3.470963725e-24
3.533456261e-24
3.597131465e-24
3.662015741e-24
3.72813657e-24
3.795522555e-24
3.864203481e-24
3.934210356e-24
4.005575473e-24
4.078332463e-24
4.152516351e-24
4.22816362e-24
4.305312268e-24
4.384001878e-24
4.464273676e-24
4.546170611e-24
4.629737416e-24
4.715020688e-24
4.802068964e-24
4.890932799e-24
4.981664851e-24
5.074319968e-24
5.168955275e-24
5.26563027e-24
5.364406921e-24
5.46534977e-24
5.568526037e-24
5.674005732e-24
5.781861774e-24
5.892170113e-24
6.00500986e-24
6.120463419e-24
6.238616637e-24
6.359558949e-24
6.483383543e-24
6.610187535e-24
6.740072184e-24
6.873143125e-24
7.009508955e-24
7.149261342e-24
7.292546682e-24
7.439510633e-24
7.590305269e-24
7.74502522e-24
7.90380217e-24
8.066782024e-24
8.234118121e-24
8.405971392e-24
8.58251053e-24
8.763912246e-24
8.950361959e-24
9.142054476e-24
9.339195211e-24
9.542015328e-24
9.750811486e-24
9.96577058e-24
1.018713018e-23
1.041515019e-23
1.065008142e-23
1.089221909e-23
1.114189098e-23
1.139942716e-23
1.166517581e-23
1.193950676e-23
1.22228134e-23
1.251551475e-23
1.281805784e-23
1.313092035e-23
1.345461355e-23
1.378968558e-23
1.41367252e-23
1.449636583e-23
1.486929019e-23
1.525623547e-23
1.565799909e-23
1.607544516e-23
1.650951178e-23
1.696121913e-23
1.743167866e-23
1.792210333e-23
1.843381912e-23
1.896827803e-23
1.952707259e-23
2.011195231e-23
2.072484204e-23
2.136786276e-23
2.204335495e-23
2.275390484e-23
2.350237413e-23
2.429193339e-23
2.512609972e-23
2.600877932e-23
2.69443155e-23
2.793754286e-23
2.899384859e-23
3.011924169e-23
3.132043141e-23
3.260491592e-23
3.398108286e-23
3.545832342e-23
3.704716181e-23
3.875940245e-23
4.060829755e-23
4.260873819e-23
4.477747254e-23
4.71333557e-23
4.969763633e-23
5.249428643e-23
5.555038204e-23
5.889654408e-23
6.25674512e-23
6.660243884e-23
7.104620278e-23
7.594963e-23
8.13707859e-23
8.737609548e-23
9.40417665e-23
1.014555176e-22
1.097186934e-22
1.189488746e-22
1.292831252e-22
1.408820675e-22
1.53935035e-22
1.686666425e-22
1.853452227e-22
2.042937394e-22
2.259039925e-22
2.506552214e-22
2.791385969e-22
3.120896241e-22
3.504311936e-22
3.95330997e-22
4.482783537e-22
5.111873062e-22
5.865353125e-22
6.775502252e-22
7.88462838e-22
9.248485303e-22
1.094090073e-21
1.306005287e-21
1.573699136e-21
1.914721456e-21
2.352641141e-21
2.919187883e-21
3.657167706e-21
4.624433696e-21
5.89929607e-21
7.587895998e-21
9.834259297e-21
1.283400803e-20
1.685306618e-20
2.225318502e-20
2.952678385e-20
3.934451783e-20
5.262023954e-20
7.059973941e-20
9.498200511e-20
1.2808497e-19
1.730721532e-19
2.342626824e-19
3.175555595e-19
4.310105487e-19
5.856439384e-19
7.965193194e-19
1.084243777e-18
1.477021744e-18
2.013476802e-18
2.746532269e-18
3.748753617e-18
5.119712173e-18
6.996148386e-18
9.566019705e-18
1.308794962e-17
1.791820284e-17
2.454817268e-17
3.365658915e-17
4.618239872e-17
6.342675837e-17
8.719616372e-17
1.200038862e-16
1.653543533e-16
2.281459415e-16
3.152434497e-16
4.362946497e-16
6.048992964e-16
8.402890553e-16
1.169750945e-15
1.632136787e-15
2.282964693e-15
3.201862292e-15
4.5034653e-15
6.353428758e-15
8.992021322e-15
1.276898815e-14
1.819518232e-14
2.601916903e-14
3.734102717e-14
5.378153271e-14
7.773371305e-14
1.127367304e-13
1.64031113e-13
2.393823564e-13
3.503011827e-13
5.138500092e-13
7.553174182e-13
1.112184234e-12
1.640029037e-12
2.421387254e-12
3.579197764e-12
5.297557868e-12
7.854490051e-12
1.167522769e-11
1.742235905e-11
2.615687972e-11
3.964871452e-11
6.103840707e-11
9.64148218e-11
1.589689393e-10
2.806465065e-10
5.456283011e-10
1.185865065e-09
2.846277802e-09
7.291587945e-09
1.918837294e-08
5.043727556e-08
1.294594526e-07
3.22789585e-07
7.728229272e-07
1.764390311e-06
3.722628347e-06
7.306156034e-06
1.313244277e-05
2.112701827e-05
2.953929231e-05
3.494431425e-05
3.485467538e-05
3.06641022e-05
2.539680181e-05
2.067979838e-05
1.68456328e-05
1.377665848e-05
1.148331187e-05
9.695805715e-06
8.223832769e-06
6.901756894e-06
5.700631913e-06
4.571137754e-06
3.531690049e-06
2.625836875e-06
1.873483535e-06
1.280440231e-06
8.394453127e-07
5.304584921e-07
3.264390966e-07
1.976204802e-07
1.185241966e-07
7.117184243e-08
4.274468036e-08
2.594461864e-08
1.588268843e-08
9.808598778e-09
6.110938083e-09
3.842122183e-09
2.427357772e-09
1.534089236e-09
9.747816315e-10
6.225284917e-10
3.993839637e-10
2.572965268e-10
1.664140967e-10
1.080190812e-10
7.032142737e-11
4.587971746e-11
3.027319064e-11
2.00301278e-11
1.321254652e-11
8.738784646e-12
5.792122751e-12
3.845126848e-12
2.555439295e-12
1.699547879e-12
1.13116247e-12
7.528823037e-13
5.011477805e-13
3.335612931e-13
2.219724699e-13
1.476672473e-13
9.819348978e-14
6.526034925e-14
4.334522038e-14
2.876847422e-14
1.907815003e-14
1.264039183e-14
8.366646147e-15
5.53185803e-15
3.653269606e-15
2.409603924e-15
1.58717406e-15
1.043949186e-15
6.855985967e-16
4.495257995e-16
2.942320612e-16
1.922340302e-16
1.253507417e-16
8.156954295e-17
5.296363601e-17
3.430960017e-17
2.217050154e-17
1.428843554e-17
9.182535711e-18
5.883279999e-18
3.75711388e-18
2.390852074e-18
1.515597217e-18
9.567465427e-19
6.011967163e-19
3.758691583e-19
2.336749774e-19
1.443607389e-19
8.85505705e-20
5.387746837e-20
3.247740297e-20
1.937052294e-20
1.141858127e-20
6.655886785e-21
3.822668654e-21
2.151907865e-21
1.177788529e-21
6.183132621e-22
3.03473262e-22
1.31327262e-22
4.117807363e-23
0
0
0
0
0
0
0
0
0
0
0
0
0
0
0
0
0
0
0
0
0
0
2.878263586e-27
5.306458024e-27
5.954335374e-27
5.676919388e-27
4.980143283e-27
4.150851574e-27
3.338038848e-27
2.613925753e-27
2.005060714e-27
1.512767761e-27
1.125916935e-27
8.28479613e-28
6.037077839e-28
4.362246113e-28
3.128847662e-28
2.229535394e-28
1.5794189e-28
1.112951809e-28
7.804516414e-29
5.448084373e-29
3.786219784e-29
2.618304787e-29
1.801031148e-29
1.233289454e-29
8.412678942e-30
5.719677725e-30
3.877763052e-30
2.622015469e-30
1.768424756e-30
1.189797362e-30
7.985816876e-31
5.347359915e-31
3.572212074e-31
2.380717809e-31
1.582844307e-31
1.049800056e-31
6.945177454e-32
4.582791273e-32
3.015776362e-32
1.978940187e-32
1.294676873e-32
8.443119853e-33
5.487316286e-33
3.553184888e-33
2.291615541e-33
1.471547163e-33
9.404360149e-34
5.978306904e-34
3.777416032e-34
2.368925526e-34
1.478251551e-34
9.179710058e-35
5.666907792e-35
3.473442012e-35
2.110576428e-35
1.268834286e-35
7.52687449e-36
4.388907862e-36
2.501844797e-36
1.382166187e-36
7.29070178e-37
3.567355369e-37
1.510800047e-37
4.26432927e-38
0
0
0
0
0
0
0
0
0
0
0
0
0
0
0
0
0
0
0
0
0
0
0
9.002454718e-43
5.035745021e-42
5.437140109e-42
5.27991058e-42
4.882349726e-42
4.509127126e-42
3.575097008e-42
2.860334772e-42
2.303836501e-42
1.781693926e-42
1.448946377e-42
1.294797768e-42
1.046066507e-42
9.586719358e-43
8.121469964e-43
7.099546018e-43
7.631013289e-43
7.652142049e-43
6.675169756e-43
5.381844001e-43
4.583883715e-43
4.285847534e-43
2.978127147e-43
2.321128193e-43
1.653067335e-43
1.302711805e-43
1.225109671e-43
8.078743518e-44
5.329775764e-44
3.698175767e-44
2.844652817e-44
2.606505611e-44
1.8225345e-44
1.418728371e-44
1.357319753e-44
1.647313973e-44
1.134745834e-44
8.873572352e-45
8.632894684e-45
1.084436597e-44
1.445451583e-44
1.888419028e-44
1.977972813e-44
1.880209433e-44
1.350320532e-44
8.841411097e-45
6.044544558e-45
4.458635737e-45
2.978334729e-45
2.130476978e-45
1.757407654e-45
1.734228342e-45
1.821245152e-45
1.2521228e-45
9.275043036e-46
8.148326469e-46
5.105327305e-46
3.109693245e-46
1.81261476e-46
1.014886981e-46
6.329215552e-47
4.986386288e-47
5.697926115e-47
8.687631352e-47
1.441851514e-46
1.661435186e-46
2.292274657e-46
1.952314629e-46
1.411400495e-46
1.141592156e-46
1.121583516e-46
1.239144402e-46
1.102074704e-46
9.030528753e-47
8.806418068e-47
6.995591868e-47
5.132513107e-47
4.226039261e-47
4.181765847e-47
3.033605984e-47
2.467101688e-47
2.240974221e-47
1.758507666e-47
1.160326454e-47
7.747896916e-48
5.356459607e-48
4.117135279e-48
3.79010569e-48
4.404484473e-48
4.975602417e-48
3.946119768e-48
3.775448734e-48
3.310823735e-48
2.552299719e-48
2.372277357e-48
1.584737781e-48
1.235920966e-48
1.287536805e-48
1.764404025e-48
1.240241627e-48
1.037939415e-48
8.360561161e-49
8.4625404e-49
7.875364987e-49
5.520663617e-49
4.393973148e-49
4.153007006e-49
2.94659814e-49
2.231041482e-49
1.861693631e-49
1.778693644e-49
1.395390646e-49
1.194169918e-49
1.164396673e-49
1.274225108e-49
1.50228138e-49
1.305490105e-49
1.220228888e-49
1.264547885e-49
1.490534817e-49
1.039215248e-49
7.429622868e-50
5.658113975e-50
4.918582156e-50
3.517637981e-50
2.861355057e-50
2.880777979e-50
2.33693869e-50
2.35262727e-50
2.359236716e-50
2.134729428e-50
1.880543592e-50
1.417969861e-50
1.271736593e-50
1.405251622e-50
1.639913778e-50
1.633615254e-50
1.593677028e-50
1.210266009e-50
1.076731762e-50
8.759609089e-51
7.962830553e-51
6.916089715e-51
5.493381622e-51
5.149978194e-51
4.229014774e-51
3.574089724e-51
3.22519625e-51
2.625057033e-51
2.419540692e-51
2.380059663e-51
2.409008888e-51
2.213696969e-51
1.959765921e-51
1.860842106e-51
1.701925927e-51
1.610146741e-51
1.60674026e-51
1.567998291e-51
1.620938747e-51
1.645331889e-51
1.542166187e-51
1.443129461e-51
1.369125328e-51
1.292917198e-51
1.204921741e-51
1.117809727e-51
1.039392375e-51
9.892445358e-52
9.163661785e-52
8.589566077e-52
8.111298426e-52
7.779947239e-52
7.622218225e-52
7.240168415e-52
6.939160911e-52
6.594584066e-52
6.221933149e-52
5.878570231e-52
5.585505824e-52
5.279858539e-52
5.008900409e-52
4.79840921e-52
4.593572708e-52
4.355774074e-52
4.109347894e-52
3.892976251e-52
3.679219214e-52
3.490907939e-52
3.311507684e-52
3.139425528e-52
2.981885105e-52
2.833972738e-52
2.687491509e-52
2.547306445e-52
2.409575297e-52
2.283965499e-52
2.165831914e-52
2.055290307e-52
1.952058359e-52
1.853318808e-52
1.759048445e-52
1.669774213e-52
1.584536445e-52
1.503402303e-52
1.428263209e-52
1.356674022e-52
1.28737187e-52
1.221408507e-52
1.159403261e-52
1.101282911e-52
1.046915425e-52
9.942627924e-53
9.434759316e-53
8.960114429e-53
8.50864618e-53
8.082217045e-53
7.676785579e-53
7.294284856e-53
6.924875435e-53
6.576798965e-53
6.24685324e-53
5.932934393e-53
5.636736273e-53
5.354480243e-53
5.084355809e-53
4.828573251e-53
4.586851274e-53
4.360024983e-53
4.143632259e-53
3.934903523e-53
3.73772073e-53
3.549993161e-53
3.373096432e-53
3.203678104e-53
3.042971335e-53
2.892513749e-53
2.74787253e-53
2.610119337e-53
2.480330265e-53
2.357162874e-53
2.240765192e-53
2.130336279e-53
2.025354708e-53
1.924828305e-53
1.828809707e-53
1.737704221e-53
1.652794442e-53
1.571449578e-53
1.49307168e-53
1.419568862e-53
1.349917375e-53
1.282922754e-53
1.219621497e-53
1.159653488e-53
1.10286399e-53
1.047110206e-53
9.946519018e-54
9.448758812e-54
8.984683475e-54
8.552587181e-54
8.134467516e-54
7.73767572e-54
7.355580008e-54
6.996388465e-54
6.645814703e-54
6.317468877e-54
6.007413984e-54
5.713610928e-54
5.440074693e-54
5.17251459e-54
4.915336663e-54
4.667618149e-54
4.435046712e-54
4.214069193e-54
4.01043604e-54
3.813938457e-54
3.627846373e-54
3.448629034e-54
3.275918083e-54
3.115160582e-54
2.963629981e-54
2.816581749e-54
2.676925043e-54
2.546104537e-54
2.421681289e-54
2.30639805e-54
2.192377771e-54
2.084657593e-54
1.980285977e-54
1.885576782e-54
1.795874468e-54
1.711492607e-54
1.63106653e-54
1.55485103e-54
1.477627769e-54
1.404468674e-54
1.334356237e-54
1.267365963e-54
1.204562381e-54
1.145260719e-54
1.091384417e-54
1.040951096e-54
9.897288537e-55
9.398720962e-55
8.922021273e-55
8.503038996e-55
8.091821269e-55
7.699078652e-55
7.316816051e-55
6.971282955e-55
6.616262392e-55
6.283861678e-55
5.974215706e-55
5.687231893e-55
5.414366166e-55
5.146161825e-55
4.897856702e-55
4.651381758e-55
4.435251137e-55
4.21533076e-55
4.014403525e-55
3.820324719e-55
3.628142687e-55
3.438492815e-55
3.263471575e-55
3.111644559e-55
2.959573743e-55
2.814014843e-55
2.665872454e-55
2.534030207e-55
2.405726408e-55
2.275998256e-55
2.157788687e-55
2.046275663e-55
1.24573477e-55
6.354450642e-56
2.994817153e-56
1.659123452e-56
8.495252645e-57
4.383570568e-57
2.05136487e-57
9.479098065e-58
4.265852027e-58
2.7461608e-58
1.000147828e-58
5.166416703e-59
3.832003315e-59
2.794280706e-59
9.839229545e-60
2.824565518e-60
9.59767676e-61
2.640989008e-60
7.114102042e-61
4.035594402e-61
4.155344302e-61
1.027297601e-62
6.905710797e-62
8.135411154e-63
2.576790808e-63
0
5.510445528e-66
3.383995854e-64
8.959498645e-64
1.85101789e-64
1.352719787e-64
8.519658832e-64
2.246600638e-65
1.005384102e-66
0
4.08842909e-65
5.824106811e-65
1.416834304e-66
5.967418575e-67
0
3.542678533e-66
2.335997366e-66
2.266823847e-67
6.751733453e-66
2.970555081e-67
3.15989224e-66
0
4.164509623e-67
1.566127397e-66
2.403458376e-67
9.479808934e-67
3.560316929e-67
6.657736758e-69
5.610055462e-68
1.884732176e-67
1.671589526e-68
6.040319999e-69
0
1.30734066e-68
1.125266187e-68
1.411779075e-69
2.241778714e-69
1.099076302e-69
4.613579244e-71
2.87617315e-70
1.56935139e-70
2.930429264e-72
3.068217196e-72
2.15433657e-71
3.121056282e-71
2.532033962e-71
0
2.474223985e-71
1.55908634e-71
4.155539213e-72
5.049564931e-72
4.360463531e-72
5.346703929e-72
2.538494905e-72
4.752157131e-73
1.589552393e-73
7.808887696e-73
6.013492907e-73
1.237288628e-73
3.501992504e-74
0
5.544541137e-74
8.258197574e-75
1.154360541e-74
1.036503934e-75
1.127694389e-75
1.832348019e-75
1.552172419e-76
2.461693977e-76
4.070780588e-76
1.924766124e-78
3.806146686e-77
0
1.525596262e-80
6.788600948e-79
1.842509018e-81
4.746527444e-78
3.150700587e-78
7.884450767e-79
1.211600855e-79
2.581482075e-81
1.124117892e-80
9.32017074e-80
1.697919323e-79
5.30407023e-79
5.274832837e-81
6.024818128e-80
1.997357586e-80
3.622166549e-79
1.36344023e-80
1.501866259e-81
1.993013274e-79
1.977146341e-80
8.748280027e-80
7.038820909e-80
2.112156448e-80
0
2.691838621e-80
3.102034141e-80
6.520300513e-80
6.098580912e-80
0
0
0
5.893975008e-80
9.702388058e-80
2.511352139e-79
1.970326694e-79
1.436958211e-79
1.112872849e-79
3.366967642e-79
0
2.077865767e-80
0
3.814974719e-79
3.605212229e-79
5.845289536e-81
0
2.382509652e-79
1.104869024e-80
1.364328456e-80
1.891561619e-79
2.246595974e-79
1.124187551e-80
2.592122995e-79
0
9.298454906e-80
1.394311788e-80
0
1.317197613e-79
2.782550634e-79
0
1.478988816e-81
6.666867238e-79
0
1.81725319e-79
0
0
2.355867883e-81
6.406223132e-79
6.939344078e-81
8.920107216e-79
1.621540038e-80
6.129007457e-81
8.95675475e-80
2.482435927e-79
5.150625091e-79
1.331053093e-79
6.065042681e-80
0
0
1.869543472e-79
1.218953753e-79
4.374219895e-81
4.715658896e-80
0
4.841159189e-81
1.569946625e-79
2.638628569e-81
1.717802004e-81
7.47829403e-80
3.922264314e-82
4.852418168e-79
2.013568036e-79
1.385645397e-79
2.421626878e-80
3.862789227e-80
4.277280169e-82
0
0
0
0
5.27163653e-79
2.985297679e-81
3.30318361e-80
8.036997314e-80
6.926823255e-80
2.134828718e-79
9.1262099e-80
0
1.651987022e-79
0
1.484689102e-79
7.307149506e-80
2.872285967e-80
1.210486639e-80
6.646313115e-81
6.376051972e-80
6.644209917e-82
0
6.905196204e-82
1.984244719e-80
2.053433311e-81
1.979066351e-81
1.414602673e-82
1.285084613e-81
6.971575511e-81
0
1.750243194e-84
1.322855491e-81
0
0
5.514732864e-82
0
2.133207031e-79
9.99159303e-81
2.543636613e-82
2.222827116e-80
0
0
0
9.521956964e-80
8.760534141e-80
0
4.735264628e-82
0
2.850597397e-80
6.506323057e-79
9.361595134e-80
3.517753396e-79
1.995568894e-79
1.889787359e-81
0
0
0
)
;

boundaryField
{
    inlet
    {
        type            fixedValue;
        value           uniform 0;
    }
    outlet
    {
        type            zeroGradient;
    }
    wall
    {
        type            empty;
    }
}


// ************************************************************************* //
