/*--------------------------------*- C++ -*----------------------------------*\
  =========                 |
  \\      /  F ield         | OpenFOAM: The Open Source CFD Toolbox
   \\    /   O peration     | Website:  https://openfoam.org
    \\  /    A nd           | Version:  7
     \\/     M anipulation  |
\*---------------------------------------------------------------------------*/
FoamFile
{
    version     2.0;
    format      ascii;
    class       volScalarField;
    location    "0.000558243009";
    object      C7H14OOH;
}
// * * * * * * * * * * * * * * * * * * * * * * * * * * * * * * * * * * * * * //

dimensions      [0 0 0 0 0 0 0];

internalField   nonuniform List<scalar> 
1500
(
1.18383523e-30
1.066622749e-30
9.218629805e-31
7.93108018e-31
7.048000078e-31
6.532513135e-31
6.265296495e-31
6.140545378e-31
6.087757446e-31
6.067210364e-31
6.059486901e-31
6.056282118e-31
6.054497743e-31
6.053149717e-31
6.051998086e-31
6.051014118e-31
6.050202182e-31
6.049554648e-31
6.049050578e-31
6.048664699e-31
6.04837494e-31
6.048165632e-31
6.04802693e-31
6.047952197e-31
6.047935108e-31
6.047967617e-31
6.048039268e-31
6.04813769e-31
6.048249826e-31
6.048363343e-31
6.048467807e-31
6.048555371e-31
6.04862094e-31
6.048661936e-31
6.048677823e-31
6.048669579e-31
6.048639213e-31
6.048589384e-31
6.048523137e-31
6.048443733e-31
6.04835452e-31
6.048258815e-31
6.048159772e-31
6.048060232e-31
6.047962584e-31
6.047868652e-31
6.047779646e-31
6.047696159e-31
6.047618243e-31
6.047545522e-31
6.047477334e-31
6.047412896e-31
6.047351435e-31
6.047292317e-31
6.047235123e-31
6.047179703e-31
6.04712619e-31
6.047074991e-31
6.047026753e-31
6.046982316e-31
6.046942657e-31
6.046908839e-31
6.04688195e-31
6.04686305e-31
6.046853119e-31
6.046853009e-31
6.046863391e-31
6.046884719e-31
6.046917191e-31
6.046960725e-31
6.047014943e-31
6.047079165e-31
6.047152416e-31
6.047233449e-31
6.047320773e-31
6.047412705e-31
6.047507409e-31
6.04760296e-31
6.047697399e-31
6.04778879e-31
6.047875276e-31
6.047955128e-31
6.048026793e-31
6.048088924e-31
6.048140414e-31
6.048180413e-31
6.048208339e-31
6.048223883e-31
6.048227e-31
6.048217905e-31
6.048197057e-31
6.048165141e-31
6.048123044e-31
6.048071832e-31
6.048012716e-31
6.047947024e-31
6.04787616e-31
6.047801568e-31
6.047724694e-31
6.047646945e-31
6.047569653e-31
6.047494033e-31
6.047421155e-31
6.04735191e-31
6.047286993e-31
6.047226883e-31
6.047171839e-31
6.047121906e-31
6.047076922e-31
6.047036547e-31
6.047000288e-31
6.046967538e-31
6.046937614e-31
6.046909803e-31
6.046883402e-31
6.046857756e-31
6.046832297e-31
6.046806563e-31
6.046780225e-31
6.046753088e-31
6.046725101e-31
6.046696339e-31
6.046666995e-31
6.046637358e-31
6.046607786e-31
6.046578681e-31
6.046550467e-31
6.046523565e-31
6.046498373e-31
6.046475254e-31
6.04645453e-31
6.046436473e-31
6.046421316e-31
6.046409251e-31
6.046400446e-31
6.046395049e-31
6.046393205e-31
6.04639506e-31
6.046400772e-31
6.046410512e-31
6.046424464e-31
6.046442821e-31
6.046465774e-31
6.046493501e-31
6.046526153e-31
6.046563839e-31
6.046606607e-31
6.046654432e-31
6.046707202e-31
6.04676471e-31
6.046826651e-31
6.046892619e-31
6.046962112e-31
6.047034544e-31
6.047109255e-31
6.047185532e-31
6.047262621e-31
6.047339754e-31
6.047416165e-31
6.047491109e-31
6.047563876e-31
6.047633806e-31
6.047700299e-31
6.047762813e-31
6.047820873e-31
6.047874061e-31
6.047922014e-31
6.047964416e-31
6.04800099e-31
6.048031487e-31
6.048055687e-31
6.048073392e-31
6.048084423e-31
6.04808863e-31
6.048085893e-31
6.048076137e-31
6.048059343e-31
6.048035563e-31
6.048004944e-31
6.047967738e-31
6.047924333e-31
6.047875262e-31
6.047821229e-31
6.047763117e-31
6.047701998e-31
6.047639135e-31
6.047575965e-31
6.047514079e-31
6.047455179e-31
6.047401027e-31
6.047353374e-31
6.047313882e-31
6.047284046e-31
6.047265114e-31
6.047258022e-31
6.047263352e-31
6.047281318e-31
6.047311785e-31
6.047354319e-31
6.047408269e-31
6.047472864e-31
6.047547312e-31
6.047630879e-31
6.047722941e-31
6.047822968e-31
6.047930457e-31
6.048044796e-31
6.048165078e-31
6.048289883e-31
6.04841708e-31
6.048543674e-31
6.048665771e-31
6.048778683e-31
6.048877236e-31
6.048956258e-31
6.04901127e-31
6.0490393e-31
6.049039759e-31
6.049015257e-31
6.04897223e-31
6.048921237e-31
6.048876805e-31
6.048856713e-31
6.048880685e-31
6.048968501e-31
6.049137642e-31
6.049400651e-31
6.049762483e-31
6.050218171e-31
6.050751162e-31
6.051332705e-31
6.051922576e-31
6.052471378e-31
6.052924478e-31
6.053227491e-31
6.053333001e-31
6.053208014e-31
6.052841433e-31
6.052250734e-31
6.05148689e-31
6.05063667e-31
6.049821482e-31
6.049192257e-31
6.048920064e-31
6.049183025e-31
6.050150195e-31
6.051964306e-31
6.054717401e-31
6.058384057e-31
6.062533596e-31
6.063928621e-31
6.064323193e-31
6.064699103e-31
6.065077659e-31
6.065461323e-31
6.065850315e-31
6.066244638e-31
6.066644303e-31
6.067049341e-31
6.067459794e-31
6.06787571e-31
6.068297135e-31
6.068724118e-31
6.069156707e-31
6.069594953e-31
6.070038909e-31
6.070488633e-31
6.070944185e-31
6.071405631e-31
6.071873044e-31
6.072346499e-31
6.072826079e-31
6.073311874e-31
6.073803978e-31
6.074302495e-31
6.074807536e-31
6.075319219e-31
6.07583767e-31
6.076363028e-31
6.076895437e-31
6.077435056e-31
6.077982051e-31
6.078536604e-31
6.079098905e-31
6.079669162e-31
6.080247595e-31
6.080834437e-31
6.081429942e-31
6.082034377e-31
6.082648029e-31
6.083271203e-31
6.083904226e-31
6.084547445e-31
6.08520123e-31
6.085865977e-31
6.086542107e-31
6.087230067e-31
6.087930335e-31
6.088643418e-31
6.089369858e-31
6.090110229e-31
6.090865145e-31
6.091635256e-31
6.092421255e-31
6.09322388e-31
6.094043913e-31
6.09488219e-31
6.095739596e-31
6.096617074e-31
6.097515627e-31
6.098436321e-31
6.099380291e-31
6.100348742e-31
6.101342958e-31
6.102364304e-31
6.103414233e-31
6.10449429e-31
6.105606119e-31
6.106751473e-31
6.107932216e-31
6.109150334e-31
6.110407941e-31
6.111707292e-31
6.113050788e-31
6.114440989e-31
6.115880627e-31
6.117372614e-31
6.118920056e-31
6.120526271e-31
6.1221948e-31
6.123929423e-31
6.125734181e-31
6.12761339e-31
6.129571667e-31
6.131613944e-31
6.133745502e-31
6.135971987e-31
6.138299444e-31
6.140734345e-31
6.143283618e-31
6.145954686e-31
6.148755501e-31
6.151694583e-31
6.154781068e-31
6.158024745e-31
6.161436113e-31
6.165026428e-31
6.168807763e-31
6.172793066e-31
6.176996227e-31
6.181432141e-31
6.186116789e-31
6.191067311e-31
6.196302091e-31
6.201840847e-31
6.207704723e-31
6.21391639e-31
6.220500156e-31
6.227482071e-31
6.234890056e-31
6.242754021e-31
6.251106002e-31
6.259980301e-31
6.269413635e-31
6.279445288e-31
6.290117281e-31
6.301474535e-31
6.313565057e-31
6.326440126e-31
6.340154487e-31
6.354766556e-31
6.370338634e-31
6.386937125e-31
6.404632765e-31
6.423500861e-31
6.443621532e-31
6.465079962e-31
6.487966656e-31
6.512377713e-31
6.538415087e-31
6.566186874e-31
6.595807588e-31
6.627398454e-31
6.661087692e-31
6.697010816e-31
6.73531093e-31
6.77613902e-31
6.819654255e-31
6.866024282e-31
6.915425518e-31
6.968043437e-31
7.024072861e-31
7.083718228e-31
7.147193871e-31
7.214724267e-31
7.286544293e-31
7.362899457e-31
7.444046115e-31
7.530251678e-31
7.62179479e-31
7.718965496e-31
7.822065376e-31
7.931407664e-31
8.047317333e-31
8.170131158e-31
8.30019774e-31
8.437877508e-31
8.583542676e-31
8.737577171e-31
8.900376522e-31
9.072347705e-31
9.253908953e-31
9.445489522e-31
9.647529411e-31
9.860479036e-31
1.008479887e-30
1.032095901e-30
1.056943874e-30
1.083072601e-30
1.110531685e-30
1.139371482e-30
1.169643032e-30
1.201397991e-30
1.234688555e-30
1.269567382e-30
1.306087509e-30
1.344302265e-30
1.384265179e-30
1.426029886e-30
1.469650026e-30
1.515179144e-30
1.562670587e-30
1.612177392e-30
1.66375218e-30
1.717447043e-30
1.773313432e-30
1.831402038e-30
1.891762685e-30
1.954444207e-30
2.019494335e-30
2.086959587e-30
2.156885146e-30
2.229314757e-30
2.304290611e-30
2.381853239e-30
2.46204141e-30
2.544892029e-30
2.63044004e-30
2.718718334e-30
2.809757663e-30
2.903586556e-30
3.000231249e-30
3.099715606e-30
3.202061066e-30
3.307286581e-30
3.41540857e-30
3.52644088e-30
3.640394751e-30
3.757278793e-30
3.877098972e-30
3.999858604e-30
4.125558357e-30
4.254196261e-30
4.385767734e-30
4.520265611e-30
4.657680186e-30
4.797999261e-30
4.941208209e-30
5.087290043e-30
5.2362255e-30
5.387993127e-30
5.542569384e-30
5.699928755e-30
5.860043871e-30
6.022885635e-30
6.188423368e-30
6.356624956e-30
6.527457015e-30
6.700885057e-30
6.876873675e-30
7.055386732e-30
7.236387563e-30
7.419839187e-30
7.605704528e-30
7.79394665e-30
7.984529001e-30
8.177415668e-30
8.372571642e-30
8.569963102e-30
8.769557703e-30
8.971324883e-30
9.175236179e-30
9.381265561e-30
9.589389781e-30
9.799588732e-30
1.001184583e-29
1.022614842e-29
1.044248817e-29
1.066086152e-29
1.088127014e-29
1.11037214e-29
1.132822886e-29
1.155481281e-29
1.178350082e-29
1.201432829e-29
1.224733906e-29
1.248258605e-29
1.272013194e-29
1.296004979e-29
1.320242383e-29
1.344735008e-29
1.369493605e-29
1.394529503e-29
1.419852856e-29
1.445481968e-29
1.471433368e-29
1.497723563e-29
1.524377804e-29
1.551419379e-29
1.578872938e-29
1.606765265e-29
1.635125408e-29
1.66398483e-29
1.693377558e-29
1.723340291e-29
1.753912518e-29
1.785136639e-29
1.817056777e-29
1.849714004e-29
1.883166337e-29
1.917470339e-29
1.952684445e-29
1.988867512e-29
2.026086659e-29
2.064416396e-29
2.103933832e-29
2.144719901e-29
2.186860184e-29
2.230445251e-29
2.275570889e-29
2.322338307e-29
2.37085434e-29
2.421231658e-29
2.473588978e-29
2.52805128e-29
2.584750029e-29
2.64382339e-29
2.705416465e-29
2.769681519e-29
2.836778221e-29
2.906873881e-29
2.980143704e-29
3.056771043e-29
3.136947661e-29
3.220874007e-29
3.30875949e-29
3.400822781e-29
3.497292111e-29
3.598405594e-29
3.704411566e-29
3.815568933e-29
3.932147551e-29
4.054428624e-29
4.182705128e-29
4.317282263e-29
4.458477943e-29
4.606623316e-29
4.762063325e-29
4.925157318e-29
5.096279702e-29
5.275820652e-29
5.46418688e-29
5.661802464e-29
5.869109758e-29
6.086570364e-29
6.314666202e-29
6.553900657e-29
6.804799839e-29
7.067913937e-29
7.343818698e-29
7.633117026e-29
7.936440724e-29
8.254452381e-29
8.587847425e-29
8.937356357e-29
9.303747183e-29
9.687828074e-29
1.009045028e-28
1.051251133e-28
1.09549586e-28
1.141879323e-28
1.190507461e-28
1.241492542e-28
1.294953745e-28
1.351017843e-28
1.409820012e-28
1.47150481e-28
1.536227385e-28
1.604154992e-28
1.67546893e-28
1.750367059e-28
1.829067118e-28
1.911811155e-28
1.998871509e-28
2.090558957e-28
2.187233898e-28
2.2893218e-28
2.397334633e-28
2.511900726e-28
2.633806502e-28
2.764054944e-28
2.903947681e-28
3.055200424e-28
3.220105527e-28
3.401761176e-28
3.604394867e-28
3.833820355e-28
4.09808371e-28
4.408377479e-28
4.780335229e-28
5.235866191e-28
5.805757466e-28
6.533368049e-28
7.479877485e-28
8.731750652e-28
1.04113655e-27
1.269216121e-27
1.582025658e-27
2.014534459e-27
2.616491045e-27
3.458762469e-27
4.642439446e-27
6.31194069e-27
8.673915524e-27
1.202457816e-26
1.678934319e-26
2.358047218e-26
3.328119518e-26
4.716891589e-26
6.709638471e-26
9.575928731e-26
1.370933718e-25
1.968669241e-25
2.835697473e-25
4.09755339e-25
5.940809845e-25
8.64431326e-25
1.262738537e-24
1.852483777e-24
2.730477863e-24
4.045543081e-24
6.028448422e-24
9.040411885e-24
1.365261891e-23
2.077823557e-23
3.189450267e-23
4.942166698e-23
7.737916685e-23
1.225398321e-22
1.964936888e-22
3.194023493e-22
5.269530511e-22
8.834837138e-22
1.507244429e-21
2.620013562e-21
4.646609863e-21
8.418820401e-21
1.560260521e-20
2.961329513e-20
5.762103358e-20
1.150458882e-19
2.358625411e-19
4.967503202e-19
1.07491548e-18
2.389391768e-18
5.453005834e-18
1.276455729e-17
3.060571298e-17
7.503282573e-17
1.8767351e-16
4.776923663e-16
1.233788293e-15
3.223496255e-15
8.491580762e-15
2.247951829e-14
5.961046577e-14
1.578689988e-13
4.164709581e-13
1.092218604e-12
2.843923109e-12
7.349156907e-12
1.885802826e-11
4.811305263e-11
1.222571603e-10
3.09838431e-10
7.833149809e-10
1.971981791e-09
4.920997748e-09
1.21035504e-08
2.902772373e-08
6.751389531e-08
1.501772046e-07
3.150644747e-07
6.019088794e-07
1.038062127e-06
1.565832116e-06
1.989356857e-06
2.053056484e-06
1.697340155e-06
1.160626947e-06
7.012058985e-07
3.98595678e-07
2.210147256e-07
1.217383373e-07
6.598476773e-08
3.657706077e-08
2.051255488e-08
1.165625155e-08
6.603379186e-09
3.799171865e-09
2.187882187e-09
1.258151296e-09
7.154771701e-10
4.076904795e-10
2.313300755e-10
1.30961653e-10
7.417010635e-11
4.215465977e-11
2.410825597e-11
1.379670047e-11
7.993659412e-12
4.644882107e-12
2.726677601e-12
1.611538179e-12
9.590069248e-13
5.749270785e-13
3.479129591e-13
2.10459651e-13
1.273472466e-13
7.759247893e-14
4.762362035e-14
2.944795951e-14
1.834073464e-14
1.149726182e-14
7.246315305e-15
4.584597648e-15
2.907920687e-15
1.884753585e-15
1.230485227e-15
7.9901349e-16
5.217389849e-16
3.424510719e-16
2.257775228e-16
1.493984489e-16
9.913666789e-17
6.599334632e-17
4.397149386e-17
2.9332603e-17
1.958189224e-17
1.307753693e-17
8.734311926e-18
5.832368922e-18
3.892887589e-18
2.596682727e-18
1.730637647e-18
1.152291963e-18
7.663449801e-19
5.090188439e-19
3.376280214e-19
2.236090928e-19
1.478567458e-19
9.760005817e-20
6.430937535e-20
4.229339953e-20
2.775900409e-20
1.818136436e-20
1.188221637e-20
7.747686397e-21
5.039678019e-21
3.269933745e-21
2.116048142e-21
1.365533748e-21
8.786244165e-22
5.635781516e-22
3.603065428e-22
2.295426875e-22
1.456871355e-22
9.209219344e-23
5.795984648e-23
3.630550326e-23
2.262435274e-23
1.40199543e-23
8.636288596e-24
5.288623527e-24
3.221929516e-24
1.950077765e-24
1.170578608e-24
6.953252842e-25
4.074777562e-25
2.345905003e-25
1.318556154e-25
7.165182224e-26
3.70284333e-26
1.764687661e-26
7.258127351e-27
1.991377941e-27
0
0
0
0
0
0
0
0
0
0
0
0
0
0
0
0
0
0
0
0
0
0
0
0
0
0
0
0
6.245384522e-33
1.348879208e-32
1.484746978e-32
1.411177019e-32
1.183638555e-32
9.53430527e-33
7.398735903e-33
5.65452072e-33
4.266560735e-33
3.220201428e-33
2.488579543e-33
1.86413157e-33
1.317749624e-33
9.325334726e-34
6.601014054e-34
4.700103188e-34
3.393448363e-34
2.465622821e-34
1.834463814e-34
1.450728042e-34
1.080703082e-34
8.849090326e-35
6.35881636e-35
4.902980862e-35
4.345156714e-35
3.46593176e-35
2.287126723e-35
1.522216645e-35
1.038385393e-35
7.437294634e-36
5.74842046e-36
4.763529744e-36
4.358948932e-36
3.627991877e-36
3.232159728e-36
2.62342596e-36
2.201076467e-36
1.855443037e-36
1.687731894e-36
1.750614628e-36
2.108510287e-36
1.691478984e-36
1.436123459e-36
1.387825699e-36
1.33374197e-36
1.42807705e-36
9.891752764e-37
7.449961804e-37
5.044180899e-37
3.665952976e-37
2.997284759e-37
2.269255163e-37
1.964835862e-37
1.559461778e-37
1.522452953e-37
1.886362819e-37
1.617778259e-37
1.730779672e-37
1.537354373e-37
1.120214271e-37
8.599618645e-38
7.318538607e-38
5.294480629e-38
4.231971748e-38
4.031837682e-38
4.767712297e-38
3.153571535e-38
2.223464991e-38
1.802037156e-38
1.824408833e-38
1.334941712e-38
1.190372722e-38
1.082523625e-38
8.442140265e-39
6.235942952e-39
4.122561588e-39
2.960186901e-39
2.191079186e-39
1.722087594e-39
1.590334934e-39
1.772573176e-39
2.301889081e-39
2.452409102e-39
2.056448689e-39
1.407905467e-39
1.029377481e-39
8.625601338e-40
8.835808814e-40
5.882793546e-40
4.147598261e-40
3.270256902e-40
3.134270519e-40
2.26609315e-40
1.809532645e-40
1.547318304e-40
1.534696536e-40
1.79616099e-40
1.416633699e-40
1.182273906e-40
9.881273643e-41
8.27841843e-41
7.018081999e-41
6.034651814e-41
5.12582504e-41
4.553516698e-41
4.450021751e-41
3.474387123e-41
3.017150845e-41
2.287477341e-41
1.885218176e-41
1.813711488e-41
2.140556695e-41
1.746514342e-41
1.737262721e-41
1.191566536e-41
8.202395827e-42
5.9949084e-42
4.636153291e-42
4.012013576e-42
3.306273329e-42
3.128012197e-42
3.42124005e-42
4.220704248e-42
3.629422763e-42
3.2693203e-42
3.099422568e-42
3.281826744e-42
3.354436265e-42
2.22781742e-42
1.47726763e-42
9.86818285e-43
6.783196355e-43
5.088857812e-43
4.448691759e-43
4.561542087e-43
3.441983632e-43
2.93834674e-43
1.980805736e-43
1.363002261e-43
1.005869638e-43
8.706868967e-44
9.560817009e-44
1.115065518e-43
7.8256187e-44
6.372839857e-44
4.968091437e-44
4.477392976e-44
4.803326066e-44
4.080275086e-44
3.224408068e-44
2.918444171e-44
2.106328449e-44
1.635082326e-44
1.28772737e-44
1.00923355e-44
8.227326263e-45
7.432985367e-45
7.420777908e-45
8.52248126e-45
1.114865295e-44
1.490374512e-44
1.085014624e-44
8.796894289e-45
6.465754208e-45
4.266838712e-45
2.818750424e-45
1.880502638e-45
1.285878374e-45
9.308989614e-46
7.380338972e-46
6.363066891e-46
5.153442106e-46
4.434099524e-46
3.916976108e-46
3.636251873e-46
3.866695765e-46
4.601281543e-46
6.299275656e-46
5.528440393e-46
4.554468864e-46
4.161047347e-46
4.481911351e-46
3.054625733e-46
2.140807556e-46
1.52268428e-46
1.07674076e-46
7.830552411e-47
6.305197823e-47
4.16891767e-47
2.74690046e-47
1.96018399e-47
1.293282337e-47
9.375151138e-48
9.424021578e-48
1.373193682e-47
2.497183935e-47
3.37241273e-47
2.065577491e-47
1.477244288e-47
1.070224267e-47
9.829993543e-48
9.861082478e-48
1.118936398e-47
1.282944766e-47
1.697192812e-47
2.482601367e-47
2.126737065e-47
1.501616569e-47
1.152223893e-47
1.019630065e-47
1.031586101e-47
7.488694831e-48
6.031526221e-48
5.793815576e-48
5.449331706e-48
6.43250849e-48
5.940114161e-48
4.143750177e-48
3.135782097e-48
2.504952957e-48
2.337153215e-48
1.732637556e-48
1.520290399e-48
1.17742717e-48
1.02911872e-48
1.066755104e-48
1.313608691e-48
1.140822573e-48
7.856625787e-49
5.920586303e-49
5.339985022e-49
3.659891837e-49
2.78603473e-49
1.800028639e-49
1.158856181e-49
7.666413976e-50
5.961751506e-50
6.215140629e-50
8.381872049e-50
1.066687935e-49
9.15355637e-50
7.817884413e-50
7.549767327e-50
7.000458591e-50
6.922166478e-50
5.798335881e-50
5.893636777e-50
4.104600412e-50
3.131586017e-50
2.204643026e-50
1.582578716e-50
1.194369013e-50
9.89510134e-51
9.399085732e-51
1.031407652e-50
9.061953514e-51
9.11886913e-51
6.719339583e-51
5.216495334e-51
4.518046021e-51
3.932551385e-51
4.252920471e-51
5.293694362e-51
3.498772984e-51
2.441051638e-51
1.818102271e-51
1.401660236e-51
1.197488417e-51
1.175551886e-51
1.398818757e-51
1.185449691e-51
1.19041001e-51
1.267918467e-51
1.061398131e-51
1.037977218e-51
9.657624369e-52
1.035237564e-51
7.661281716e-52
6.559905984e-52
4.412492081e-52
3.188161223e-52
2.599530138e-52
2.550093662e-52
2.008091956e-52
1.323741078e-52
9.282830207e-53
6.976507583e-53
6.382945739e-53
7.546453495e-53
7.94720192e-53
5.761461939e-53
5.091137491e-53
5.672746044e-53
4.360778163e-53
3.547764327e-53
3.209836237e-53
3.295848319e-53
2.749673926e-53
2.451903313e-53
2.517838274e-53
2.844018518e-53
2.635840147e-53
2.057459034e-53
1.675221908e-53
1.462145612e-53
1.506586631e-53
1.254800703e-53
1.202668887e-53
8.618684594e-54
6.563296961e-54
5.350500176e-54
4.036531565e-54
3.220844502e-54
2.84981038e-54
2.377957116e-54
2.035148469e-54
1.817774192e-54
1.723369246e-54
1.819447881e-54
1.408191901e-54
1.125635999e-54
1.032598045e-54
1.158632341e-54
8.455015975e-55
6.784247646e-55
6.107853036e-55
4.607155331e-55
3.521551379e-55
2.753779995e-55
2.295538127e-55
2.1021154e-55
1.689998608e-55
1.258507814e-55
1.029345591e-55
1.004920424e-55
1.220174359e-55
1.275974568e-55
1.117360188e-55
1.239322577e-55
8.312860895e-56
5.710085871e-56
4.177332517e-56
3.044293093e-56
2.526318618e-56
2.027301751e-56
2.000964756e-56
2.468242948e-56
3.587650055e-56
2.501537123e-56
1.802985044e-56
1.421467018e-56
1.334549765e-56
1.208486529e-56
1.303395226e-56
1.307269237e-56
9.919321842e-57
8.441108572e-57
8.703425972e-57
6.71240349e-57
5.741491886e-57
3.740103621e-57
2.46392939e-57
1.728360422e-57
1.423414277e-57
1.375914373e-57
1.761126818e-57
1.326962323e-57
1.215616548e-57
1.391378487e-57
1.299804302e-57
1.174270026e-57
9.755316802e-58
9.194761336e-58
9.710937465e-58
8.879749191e-58
7.805062239e-58
5.526917298e-58
3.867518441e-58
2.67160165e-58
1.865342e-58
1.330355074e-58
9.98167361e-59
8.246954526e-59
7.722403997e-59
8.910146765e-59
1.10492729e-58
1.085301508e-58
1.224370015e-58
1.610644309e-58
1.426130929e-58
1.075928667e-58
7.408544612e-59
5.299750564e-59
4.220235508e-59
4.18651564e-59
3.309839581e-59
3.220852033e-59
2.308872301e-59
1.810112055e-59
1.646110373e-59
1.820418759e-59
2.157956146e-59
2.21512056e-59
1.988365318e-59
1.494164169e-59
1.295013735e-59
8.66719763e-60
6.160631402e-60
4.126722592e-60
2.915513144e-60
2.301394249e-60
1.251442524e-60
5.651086824e-61
1.72584872e-61
0
0
1.502981016e-61
1.404373802e-61
1.179020175e-62
8.936660931e-64
1.429841623e-64
3.45636273e-64
1.594470298e-64
9.452950475e-65
3.931077648e-65
1.961547679e-65
7.48232373e-66
3.78242382e-66
2.940201042e-66
1.459240188e-66
5.8432775e-67
1.597464487e-67
2.839457488e-68
5.815702991e-68
6.762860604e-68
4.342535111e-69
9.631821606e-69
6.135201607e-70
5.205555431e-69
7.733545197e-70
1.713477922e-69
1.0086704e-69
2.129938202e-70
1.43069172e-70
2.79776883e-71
4.97312884e-72
0
9.741399266e-72
4.738373801e-72
1.247955257e-73
0
3.068214026e-72
1.367722022e-72
6.615257426e-74
2.835797759e-74
1.001179544e-72
1.51198461e-73
4.446099778e-73
2.734269767e-73
0
0
6.099609285e-74
2.213789134e-75
0
2.811107069e-74
0
1.728009204e-74
6.409764238e-75
1.568618533e-76
0
9.841035533e-75
5.952750517e-77
0
1.333738979e-75
9.784921008e-76
2.008785422e-76
4.669134846e-77
2.479945126e-76
0
1.282937301e-79
4.288145285e-77
7.409291777e-78
1.888565994e-79
0
2.819985719e-79
3.719205845e-79
4.948582158e-79
0
6.336164948e-80
1.548886546e-78
5.204558949e-79
2.138503681e-79
2.20353902e-79
6.499763784e-80
1.13251639e-80
7.318624864e-81
7.996062396e-80
1.246135961e-80
8.296567488e-81
0
0
1.038786428e-83
7.569779967e-82
1.252842396e-82
4.750019693e-82
0
0
7.870800194e-84
0
1.832519201e-84
1.789164148e-83
9.497261126e-84
2.544773233e-84
3.388398345e-84
7.495112516e-85
2.709280833e-87
5.495761441e-88
6.4748039e-86
4.432482096e-86
3.376947572e-86
0
0
0
6.564273927e-88
1.153751084e-86
7.380129589e-87
1.920886302e-88
0
0
1.274670699e-86
0
2.403243813e-89
2.701108624e-87
0
1.056324399e-87
9.199588209e-88
3.748783516e-87
1.595582429e-88
5.787697089e-88
3.133485048e-88
1.700663657e-87
0
2.504739622e-87
6.921085201e-88
1.364078349e-88
0
9.20904078e-88
0
0
1.899323474e-87
3.823292454e-87
1.712484788e-87
1.08297539e-88
3.099425125e-87
0
6.520079314e-87
4.292738897e-88
8.159580256e-87
1.570447977e-88
0
1.077157763e-87
8.821889921e-87
1.549351896e-86
5.412377271e-87
1.968067556e-88
4.111747475e-88
0
5.470491153e-87
6.274965599e-88
1.464199124e-86
2.248389497e-87
1.301902627e-86
9.605814688e-87
2.477838899e-86
9.383538335e-87
1.453753313e-86
8.386867919e-88
3.249527831e-86
2.370092985e-86
2.872173405e-88
2.052426316e-86
1.431514036e-86
1.142670661e-86
1.306297081e-86
0
1.645348792e-86
1.086621843e-86
1.218230364e-86
3.450586779e-86
0
3.307215215e-86
3.477727229e-87
5.874452121e-87
6.381910245e-87
8.229234762e-87
0
6.799688294e-87
1.023984051e-88
1.017639626e-86
6.59156454e-87
2.089265536e-86
0
9.729679061e-90
8.414213166e-87
0
5.488963765e-86
1.472852895e-86
2.954388579e-86
2.476895695e-88
1.581209206e-86
0
2.654459014e-86
2.255713342e-86
3.752506411e-87
9.912579602e-89
2.126893246e-86
6.967835619e-87
4.031558387e-89
3.573234283e-87
1.234941809e-86
9.020815127e-87
1.002603672e-86
1.057410226e-88
8.010797012e-87
1.019912941e-87
8.518482799e-87
0
0
1.227178588e-86
1.08893289e-87
1.842333276e-86
1.095777636e-86
3.429439755e-88
2.586062748e-87
0
5.331560545e-88
3.611797554e-87
3.241928081e-87
2.610920734e-87
6.00503887e-87
0
3.668566791e-87
2.78551176e-87
5.310523686e-88
0
2.918289873e-87
0
0
1.483879593e-87
1.060709323e-87
0
0
5.089350903e-87
1.235474315e-87
3.332588397e-87
0
3.519492186e-90
4.740735113e-87
8.9305887e-87
0
4.782671933e-87
1.540181836e-87
0
2.769440604e-89
0
1.989257672e-86
)
;

boundaryField
{
    inlet
    {
        type            fixedValue;
        value           uniform 0;
    }
    outlet
    {
        type            zeroGradient;
    }
    wall
    {
        type            empty;
    }
}


// ************************************************************************* //
