/*--------------------------------*- C++ -*----------------------------------*\
  =========                 |
  \\      /  F ield         | OpenFOAM: The Open Source CFD Toolbox
   \\    /   O peration     | Website:  https://openfoam.org
    \\  /    A nd           | Version:  7
     \\/     M anipulation  |
\*---------------------------------------------------------------------------*/
FoamFile
{
    version     2.0;
    format      ascii;
    class       volScalarField;
    location    "0.000558243009";
    object      C7H14O_0;
}
// * * * * * * * * * * * * * * * * * * * * * * * * * * * * * * * * * * * * * //

dimensions      [0 0 0 0 0 0 0];

internalField   nonuniform List<scalar> 
1500
(
1.011394213e-18
3.929649702e-18
8.072985859e-18
1.203197376e-17
1.491625085e-17
1.663165799e-17
1.749797299e-17
1.787866186e-17
1.802674039e-17
1.807841553e-17
1.809477602e-17
1.809952005e-17
1.810079012e-17
1.810110622e-17
1.810117979e-17
1.810119588e-17
1.81011992e-17
1.810119985e-17
1.810119997e-17
1.81012e-17
1.81012e-17
1.81012e-17
1.81012e-17
1.81012e-17
1.81012e-17
1.81012e-17
1.81012e-17
1.81012e-17
1.81012e-17
1.81012e-17
1.81012e-17
1.81012e-17
1.81012e-17
1.81012e-17
1.81012e-17
1.81012e-17
1.81012e-17
1.81012e-17
1.81012e-17
1.81012e-17
1.81012e-17
1.81012e-17
1.81012e-17
1.81012e-17
1.81012e-17
1.81012e-17
1.81012e-17
1.81012e-17
1.81012e-17
1.81012e-17
1.81012e-17
1.81012e-17
1.81012e-17
1.81012e-17
1.81012e-17
1.81012e-17
1.81012e-17
1.81012e-17
1.81012e-17
1.81012e-17
1.81012e-17
1.81012e-17
1.81012e-17
1.81012e-17
1.81012e-17
1.81012e-17
1.81012e-17
1.81012e-17
1.81012e-17
1.81012e-17
1.81012e-17
1.81012e-17
1.81012e-17
1.81012e-17
1.81012e-17
1.81012e-17
1.81012e-17
1.81012e-17
1.81012e-17
1.81012e-17
1.81012e-17
1.81012e-17
1.81012e-17
1.81012e-17
1.81012e-17
1.81012e-17
1.81012e-17
1.81012e-17
1.81012e-17
1.81012e-17
1.81012e-17
1.81012e-17
1.81012e-17
1.81012e-17
1.81012e-17
1.81012e-17
1.81012e-17
1.81012e-17
1.81012e-17
1.81012e-17
1.81012e-17
1.81012e-17
1.81012e-17
1.81012e-17
1.81012e-17
1.81012e-17
1.81012e-17
1.81012e-17
1.81012e-17
1.81012e-17
1.81012e-17
1.81012e-17
1.81012e-17
1.81012e-17
1.81012e-17
1.81012e-17
1.81012e-17
1.81012e-17
1.81012e-17
1.81012e-17
1.81012e-17
1.81012e-17
1.81012e-17
1.81012e-17
1.81012e-17
1.81012e-17
1.81012e-17
1.81012e-17
1.81012e-17
1.81012e-17
1.81012e-17
1.81012e-17
1.81012e-17
1.81012e-17
1.81012e-17
1.81012e-17
1.81012e-17
1.81012e-17
1.81012e-17
1.81012e-17
1.81012e-17
1.81012e-17
1.81012e-17
1.81012e-17
1.81012e-17
1.81012e-17
1.81012e-17
1.81012e-17
1.81012e-17
1.81012e-17
1.81012e-17
1.81012e-17
1.81012e-17
1.81012e-17
1.81012e-17
1.81012e-17
1.81012e-17
1.81012e-17
1.81012e-17
1.81012e-17
1.81012e-17
1.81012e-17
1.81012e-17
1.81012e-17
1.81012e-17
1.81012e-17
1.81012e-17
1.81012e-17
1.81012e-17
1.81012e-17
1.81012e-17
1.81012e-17
1.81012e-17
1.81012e-17
1.81012e-17
1.81012e-17
1.81012e-17
1.81012e-17
1.81012e-17
1.81012e-17
1.81012e-17
1.81012e-17
1.81012e-17
1.81012e-17
1.81012e-17
1.81012e-17
1.81012e-17
1.81012e-17
1.81012e-17
1.81012e-17
1.81012e-17
1.81012e-17
1.81012e-17
1.81012e-17
1.81012e-17
1.81012e-17
1.81012e-17
1.81012e-17
1.81012e-17
1.81012e-17
1.81012e-17
1.81012e-17
1.81012e-17
1.81012e-17
1.81012e-17
1.81012e-17
1.81012e-17
1.81012e-17
1.81012e-17
1.81012e-17
1.81012e-17
1.81012e-17
1.81012e-17
1.81012e-17
1.81012e-17
1.81012e-17
1.81012e-17
1.81012e-17
1.81012e-17
1.81012e-17
1.81012e-17
1.81012e-17
1.81012e-17
1.81012e-17
1.81012e-17
1.81012e-17
1.81012e-17
1.81012e-17
1.81012e-17
1.81012e-17
1.81012e-17
1.81012e-17
1.81012e-17
1.81012e-17
1.81012e-17
1.81012e-17
1.81012e-17
1.81012e-17
1.810120001e-17
1.810120002e-17
1.810120005e-17
1.81012002e-17
1.810120087e-17
1.81012038e-17
1.810121553e-17
1.810125829e-17
1.810139733e-17
1.810179177e-17
1.810272294e-17
1.810431993e-17
1.810466694e-17
1.810481144e-17
1.810496225e-17
1.810511962e-17
1.810528375e-17
1.810545491e-17
1.81056334e-17
1.810581954e-17
1.810601368e-17
1.810621617e-17
1.810642738e-17
1.81066477e-17
1.810687753e-17
1.810711731e-17
1.810736745e-17
1.810762844e-17
1.810790076e-17
1.810818491e-17
1.810848142e-17
1.810879085e-17
1.810911378e-17
1.810945081e-17
1.810980259e-17
1.811016979e-17
1.811055309e-17
1.811095324e-17
1.8111371e-17
1.811180718e-17
1.811226261e-17
1.811273817e-17
1.81132348e-17
1.811375346e-17
1.811429517e-17
1.811486099e-17
1.811545204e-17
1.811606949e-17
1.811671458e-17
1.81173886e-17
1.811809289e-17
1.811882889e-17
1.811959809e-17
1.812040205e-17
1.812124243e-17
1.812212095e-17
1.812303945e-17
1.812399982e-17
1.812500409e-17
1.812605437e-17
1.812715289e-17
1.8128302e-17
1.812950417e-17
1.813076199e-17
1.813207821e-17
1.813345571e-17
1.813489753e-17
1.81364069e-17
1.813798719e-17
1.813964199e-17
1.814137506e-17
1.81431904e-17
1.814509222e-17
1.814708497e-17
1.814917337e-17
1.815136241e-17
1.815365737e-17
1.815606383e-17
1.815858773e-17
1.816123534e-17
1.816401332e-17
1.816692875e-17
1.816998913e-17
1.817320243e-17
1.817657711e-17
1.81801222e-17
1.818384726e-17
1.818776249e-17
1.819187874e-17
1.819620757e-17
1.820076129e-17
1.820555304e-17
1.821059682e-17
1.821590757e-17
1.822150124e-17
1.822739486e-17
1.82336066e-17
1.824015591e-17
1.824706355e-17
1.825435173e-17
1.826204418e-17
1.827016631e-17
1.827874529e-17
1.828781019e-17
1.829739214e-17
1.830752443e-17
1.831824274e-17
1.832958522e-17
1.834159276e-17
1.835430911e-17
1.836778113e-17
1.838205896e-17
1.83971963e-17
1.841325065e-17
1.84302835e-17
1.844836071e-17
1.846755271e-17
1.848793486e-17
1.850958774e-17
1.853259751e-17
1.855705628e-17
1.858306246e-17
1.861072116e-17
1.864014463e-17
1.867145268e-17
1.870477313e-17
1.874024229e-17
1.877800548e-17
1.88182175e-17
1.886104323e-17
1.890665811e-17
1.89552488e-17
1.900701372e-17
1.906216372e-17
1.912092267e-17
1.918352812e-17
1.925023204e-17
1.932130142e-17
1.939701905e-17
1.947768419e-17
1.956361335e-17
1.965514102e-17
1.975262039e-17
1.985642419e-17
1.996694538e-17
2.008459798e-17
2.020981784e-17
2.034306337e-17
2.048481635e-17
2.063558269e-17
2.079589314e-17
2.096630407e-17
2.114739818e-17
2.133978514e-17
2.154410235e-17
2.17610155e-17
2.199121921e-17
2.22354376e-17
2.249442479e-17
2.276896539e-17
2.305987494e-17
2.336800023e-17
2.369421964e-17
2.403944338e-17
2.440461362e-17
2.479070463e-17
2.519872276e-17
2.562970636e-17
2.608472563e-17
2.656488239e-17
2.707130966e-17
2.760517127e-17
2.816766128e-17
2.876000329e-17
2.938344972e-17
3.003928084e-17
3.072880386e-17
3.145335173e-17
3.221428197e-17
3.301297527e-17
3.385083401e-17
3.472928073e-17
3.564975636e-17
3.661371842e-17
3.762263908e-17
3.867800312e-17
3.978130577e-17
4.093405044e-17
4.21377464e-17
4.339390625e-17
4.470404347e-17
4.606966975e-17
4.749229228e-17
4.897341101e-17
5.051451583e-17
5.211708367e-17
5.378257559e-17
5.551243384e-17
5.730807889e-17
5.917090643e-17
6.11022844e-17
6.310355e-17
6.517600675e-17
6.732092159e-17
6.953952197e-17
7.183299305e-17
7.420247496e-17
7.664906012e-17
7.917379068e-17
8.177765608e-17
8.446159063e-17
8.722647137e-17
9.007311596e-17
9.300228074e-17
9.601465899e-17
9.911087936e-17
1.022915044e-16
1.055570295e-16
1.089078816e-16
1.123444189e-16
1.158669296e-16
1.194756321e-16
1.231706749e-16
1.269521363e-16
1.308200254e-16
1.34774282e-16
1.388147783e-16
1.429413197e-16
1.47153646e-16
1.514514338e-16
1.558342979e-16
1.603017939e-16
1.648534209e-16
1.694886241e-16
1.742067983e-16
1.79007291e-16
1.838894067e-16
1.888524109e-16
1.93895534e-16
1.99017977e-16
2.042189156e-16
2.094975064e-16
2.148528922e-16
2.202842083e-16
2.257905889e-16
2.313711738e-16
2.370251158e-16
2.427515881e-16
2.485497923e-16
2.544189669e-16
2.603583957e-16
2.663674174e-16
2.724454352e-16
2.785919265e-16
2.848064542e-16
2.910886769e-16
2.974383615e-16
3.038553946e-16
3.103397955e-16
3.168917294e-16
3.235115214e-16
3.301996711e-16
3.369568674e-16
3.437840048e-16
3.506821998e-16
3.576528081e-16
3.646974429e-16
3.718179934e-16
3.790166449e-16
3.862958989e-16
3.936585946e-16
4.011079313e-16
4.086474913e-16
4.162812644e-16
4.240136743e-16
4.318496011e-16
4.397944174e-16
4.478540084e-16
4.560348005e-16
4.643437956e-16
4.727886015e-16
4.813774653e-16
4.901193077e-16
4.99023757e-16
5.081011857e-16
5.173627467e-16
5.268204112e-16
5.364870064e-16
5.463762558e-16
5.565028194e-16
5.668823328e-16
5.775314533e-16
5.884679019e-16
5.997105098e-16
6.112792624e-16
6.231953513e-16
6.354812196e-16
6.481606063e-16
6.612585981e-16
6.748016808e-16
6.888177911e-16
7.033363685e-16
7.183884086e-16
7.34006518e-16
7.502249695e-16
7.670797586e-16
7.846086615e-16
8.028512944e-16
8.218491737e-16
8.416457785e-16
8.622866142e-16
8.838192781e-16
9.062935276e-16
9.297613501e-16
9.542770361e-16
9.798972545e-16
1.006681132e-15
1.034690336e-15
1.063989161e-15
1.09464462e-15
1.126726542e-15
1.160307672e-15
1.19546378e-15
1.23227378e-15
1.270819845e-15
1.311187545e-15
1.353465986e-15
1.397747955e-15
1.444130089e-15
1.492713041e-15
1.543601671e-15
1.596905241e-15
1.652737634e-15
1.711217585e-15
1.772468925e-15
1.836620856e-15
1.903808235e-15
1.974171885e-15
2.047858933e-15
2.125023171e-15
2.205825442e-15
2.290434069e-15
2.379025307e-15
2.471783844e-15
2.568903344e-15
2.670587041e-15
2.777048403e-15
2.888511859e-15
3.005213637e-15
3.127402701e-15
3.255341845e-15
3.389308983e-15
3.529598681e-15
3.676524029e-15
3.830418965e-15
3.991641188e-15
4.160575901e-15
4.337640662e-15
4.523291749e-15
4.718032614e-15
4.922425185e-15
5.137105091e-15
5.36280228e-15
5.60036906e-15
5.850818358e-15
6.115376058e-15
6.395552734e-15
6.693242116e-15
7.010856391e-15
7.351512276e-15
7.719287086e-15
8.119571247e-15
8.559553766e-15
9.04889094e-15
9.600627603e-15
1.023246641e-14
1.096851674e-14
1.184170446e-14
1.289709239e-14
1.419645536e-14
1.582458386e-14
1.789796884e-14
2.057676649e-14
2.408128068e-14
2.871466698e-14
3.489420431e-14
4.31943631e-14
5.440611437e-14
6.961859485e-14
9.033154221e-14
1.186100738e-13
1.572977265e-13
2.103096415e-13
2.830359805e-13
3.828969115e-13
5.201059619e-13
7.087197352e-13
9.680810649e-13
1.324802535e-12
1.81549188e-12
2.490495518e-12
3.419038663e-12
4.696280172e-12
6.452991001e-12
8.868825277e-12
1.219050736e-11
1.675674044e-11
2.303229694e-11
3.165463955e-11
4.349762342e-11
5.975845438e-11
8.20762661e-11
1.126936202e-10
1.546761745e-10
2.12211027e-10
2.910112464e-10
3.988633778e-10
5.463669429e-10
7.479310012e-10
1.02311375e-09
1.398418228e-09
1.90969197e-09
2.605322794e-09
3.5504788e-09
4.832710351e-09
6.569317706e-09
8.91699211e-09
1.20843625e-08
1.634822542e-08
2.207440207e-08
2.974435121e-08
3.998886546e-08
5.363038256e-08
7.173564111e-08
9.56805861e-08
1.272295633e-07
1.686309126e-07
2.227310565e-07
2.93109063e-07
3.842334308e-07
5.016425e-07
6.521494427e-07
8.440722715e-07
1.087488746e-06
1.394515517e-06
1.779610367e-06
2.259895994e-06
2.855503472e-06
3.58993332e-06
4.490431987e-06
5.588381517e-06
6.919701274e-06
8.525259665e-06
1.04512992e-05
1.274987891e-05
1.547934724e-05
1.870487254e-05
2.249908302e-05
2.694288733e-05
3.212177448e-05
3.814719816e-05
4.510022561e-05
5.319150817e-05
6.256941596e-05
7.341464206e-05
8.529063619e-05
9.836672508e-05
0.0001121567354
0.0001255536389
0.0001368550426
0.0001444770535
0.0001479801534
0.0001481788822
0.0001462024404
0.0001428579533
0.0001385894725
0.000133489069
0.000127965145
0.0001219576915
0.0001154974781
0.0001084865212
0.0001012574082
9.374467493e-05
8.601067875e-05
7.812311355e-05
7.023983883e-05
6.247081922e-05
5.493323189e-05
4.774314119e-05
4.100544285e-05
3.480562369e-05
2.917390553e-05
2.421366887e-05
1.986501339e-05
1.617644221e-05
1.307171891e-05
1.049437216e-05
8.380879049e-06
6.66601415e-06
5.271960868e-06
4.138868572e-06
3.238218863e-06
2.526862868e-06
1.96770639e-06
1.530047413e-06
1.188750097e-06
9.232687207e-07
7.16956985e-07
5.567211098e-07
4.348070462e-07
3.398243208e-07
2.64948216e-07
2.068603051e-07
1.617050193e-07
1.265424241e-07
9.912352907e-08
7.771939571e-08
6.100667224e-08
4.792917791e-08
3.76944082e-08
2.967705544e-08
2.339064612e-08
1.845648641e-08
1.457962473e-08
1.153019999e-08
9.128957047e-09
7.235997334e-09
5.742043217e-09
4.561654306e-09
3.627960534e-09
2.888570682e-09
2.302392704e-09
1.837161105e-09
1.467512635e-09
1.173487355e-09
9.393598967e-10
7.527272213e-10
6.037958144e-10
4.848241061e-10
3.896858236e-10
3.135276682e-10
2.525006425e-10
2.035489482e-10
1.642439363e-10
1.326533529e-10
1.072382657e-10
8.677172496e-11
7.02745062e-11
5.696429417e-11
4.621545358e-11
3.75271477e-11
3.049804614e-11
2.480623911e-11
2.019326991e-11
1.645142836e-11
1.341362875e-11
1.094533858e-11
8.938136186e-12
7.304563246e-12
5.974008047e-12
4.889409779e-12
4.004617637e-12
3.282272584e-12
2.692106756e-12
2.209576879e-12
1.8147651e-12
1.49149409e-12
1.226614019e-12
1.009427504e-12
8.312254376e-13
6.849119787e-13
5.647013353e-13
4.658723799e-13
3.845699058e-13
3.176435275e-13
2.625169887e-13
2.17082054e-13
1.796122938e-13
1.486929767e-13
1.231640179e-13
1.020735161e-13
8.463988766e-14
7.022098171e-14
5.828887409e-14
4.840927928e-14
4.02247235e-14
3.3440782e-14
2.781481521e-14
2.314674357e-14
1.927148742e-14
1.60527671e-14
1.337801552e-14
1.115420086e-14
9.304394483e-15
7.76494938e-15
6.483179194e-15
5.415447839e-15
4.525596186e-15
3.78364559e-15
3.164728946e-15
2.648208849e-15
2.216949705e-15
1.856716593e-15
1.55567854e-15
1.303997853e-15
1.093490431e-15
9.173446257e-16
7.698884627e-16
6.463967914e-16
5.429314427e-16
4.562086773e-16
3.834892132e-16
3.224869409e-16
2.71293116e-16
2.283133745e-16
1.922153781e-16
1.618852745e-16
1.363914736e-16
1.14954495e-16
9.692185869e-17
8.17471665e-17
6.897266663e-17
5.821471517e-17
4.915164799e-17
4.15136591e-17
3.507434982e-17
2.964367006e-17
2.506201978e-17
2.119531812e-17
1.793087942e-17
1.517396298e-17
1.284488512e-17
1.087660096e-17
9.212678712e-18
7.805602155e-18
6.615347423e-18
5.608189429e-18
4.755700417e-18
4.033909405e-18
3.4225964e-18
2.904699537e-18
2.465816897e-18
2.093787714e-18
1.778340197e-18
1.510795254e-18
1.283817155e-18
1.091203618e-18
9.277090253e-19
7.888954853e-19
6.710073049e-19
5.708651631e-19
4.857768577e-19
4.134620038e-19
3.519884844e-19
2.997187974e-19
2.552647459e-19
2.17449159e-19
1.852735448e-19
1.57890744e-19
1.345818076e-19
1.147364364e-19
9.783643163e-20
8.344168712e-20
7.117832988e-20
6.072867653e-20
5.182272513e-20
4.423094559e-20
3.775816885e-20
3.223840588e-20
2.75304539e-20
2.351416919e-20
2.008730455e-20
1.716282521e-20
1.466663019e-20
1.253561744e-20
1.071604046e-20
9.162112181e-21
7.834818612e-21
6.700910523e-21
5.73204624e-21
4.904062747e-21
4.19635576e-21
3.591352368e-21
3.074062315e-21
2.631696133e-21
2.253340086e-21
1.929679425e-21
1.652762728e-21
1.415801178e-21
1.212997579e-21
1.039400667e-21
8.907809502e-22
7.635248866e-22
6.545446645e-22
5.612012759e-22
4.81238912e-22
4.127290039e-22
3.540224823e-22
3.037090423e-22
2.605823786e-22
2.236105122e-22
1.919104566e-22
1.647265881e-22
1.414121724e-22
1.214135864e-22
1.042568396e-22
8.953605658e-23
7.69036351e-23
6.606183433e-23
5.675558369e-23
4.876633476e-23
4.190680386e-23
3.601647559e-23
3.095775659e-23
2.661268497e-23
2.288011469e-23
1.967330594e-23
1.691786264e-23
1.454996684e-23
1.251486701e-23
1.076558345e-23
9.261799637e-24
7.968912438e-24
6.857218477e-24
5.901216954e-24
5.079012165e-24
4.371801409e-24
3.763435997e-24
3.24004488e-24
2.789711918e-24
2.402199099e-24
2.068709143e-24
1.781681844e-24
1.534619345e-24
1.3219362e-24
1.138830704e-24
9.811744469e-25
8.454175086e-25
7.285070568e-25
6.278174557e-25
5.410902424e-25
4.663825747e-25
4.020229477e-25
3.465731502e-25
2.987955776e-25
2.576251435e-25
2.221451402e-25
1.915664908e-25
1.652099136e-25
1.424905897e-25
1.229049788e-25
1.060194829e-25
9.14606973e-26
7.890702501e-26
6.808146404e-26
5.874540245e-26
5.069327988e-26
4.374799406e-26
3.775694801e-26
3.258864818e-26
2.812977648e-26
2.428266992e-26
2.096315094e-26
1.809865946e-26
1.562664447e-26
1.349317911e-26
1.165176793e-26
1.006231968e-26
8.690262519e-27
7.505781885e-27
6.483163882e-27
5.600229612e-27
4.837847773e-27
4.179514657e-27
3.610992213e-27
3.119996117e-27
2.695926909e-27
2.32963825e-27
2.013237138e-27
1.73991168e-27
1.503782598e-27
1.299775187e-27
1.123508908e-27
9.712021713e-28
8.395902198e-28
7.258543016e-28
6.275605761e-28
5.426074126e-28
4.691799247e-28
4.057107437e-28
3.508461737e-28
3.034169868e-28
2.624132206e-28
2.26962429e-28
1.963109098e-28
1.69807503e-28
1.468896047e-28
1.270710938e-28
1.099319092e-28
9.510905097e-29
8.228881016e-29
7.120005992e-29
6.160846169e-29
5.331146185e-29
4.613397039e-29
3.992462871e-29
3.455258569e-29
2.990471288e-29
2.588319873e-29
2.240347019e-29
1.939239695e-29
1.67867399e-29
1.45318104e-29
1.258031172e-29
1.089133783e-29
9.429508052e-30
8.164219227e-30
7.068999246e-30
6.120948291e-30
5.300255799e-30
4.589782884e-30
3.974701326e-30
3.442181435e-30
2.981122176e-30
2.581917804e-30
2.236256073e-30
1.936943729e-30
1.677755589e-30
1.45330402e-30
1.258926049e-30
1.090585715e-30
9.447896087e-31
8.185138067e-31
7.091406665e-31
6.144041449e-31
5.323424904e-31
4.612573118e-31
3.996781628e-31
3.463318975e-31
3.001161529e-31
2.600764021e-31
2.25386095e-31
1.953294727e-31
1.692866927e-31
1.467209546e-31
1.271673574e-31
1.102232536e-31
9.553990039e-32
8.281523134e-32
7.178759987e-32
6.223036214e-32
5.394718732e-32
4.676799711e-32
4.054545013e-32
3.515189773e-32
3.047674812e-32
2.642418377e-32
2.291118479e-32
1.986581714e-32
1.722575021e-32
1.493697282e-32
1.295268127e-32
1.123231615e-32
9.74072808e-33
8.447455115e-33
7.326096732e-33
6.353771597e-33
5.51064781e-33
4.779535946e-33
4.145536485e-33
3.595734348e-33
3.118934238e-33
2.705431331e-33
2.346812575e-33
2.03578453e-33
1.766024166e-33
1.532049588e-33
1.329107994e-33
1.153078581e-33
1.000388403e-33
8.679394366e-34
7.530453794e-34
6.533768612e-34
5.669139614e-34
4.919050485e-34
4.268311022e-34
3.70374786e-34
3.213936368e-34
2.788968232e-34
2.420249967e-34
2.100328233e-34
1.822738388e-34
1.581873184e-34
1.372868922e-34
1.19150674e-34
1.03412702e-34
8.975551752e-35
7.790372929e-35
6.761843264e-35
5.869237011e-35
5.094573457e-35
4.422252962e-35
3.8387413e-35
3.332295905e-35
2.892728436e-35
2.511198841e-35
2.180036746e-35
1.892586518e-35
1.64307289e-35
1.426484384e-35
1.238472197e-35
1.075262486e-35
9.335802737e-36
8.105834351e-36
7.038054326e-36
6.11105631e-36
5.306261941e-36
4.607546872e-36
4.000916301e-36
3.474223451e-36
3.016925299e-36
2.619870627e-36
2.275116112e-36
1.975766739e-36
1.715837326e-36
1.49013235e-36
1.294141667e-36
1.123950016e-36
9.76158478e-37
8.478163256e-37
7.363618637e-37
6.395710938e-37
5.555131573e-37
4.825116619e-37
4.191111167e-37
3.640477971e-37
3.162244572e-37
2.746883788e-37
2.386123183e-37
2.072779669e-37
1.800615932e-37
1.5642158e-37
1.358876049e-37
1.180512471e-37
1.02557834e-37
8.909936142e-38
7.740834812e-38
6.725249982e-38
5.843007657e-38
5.076587058e-38
4.41077139e-38
3.832344628e-38
3.329828232e-38
2.893252539e-38
2.51395826e-38
2.184424114e-38
1.89811715e-38
1.649362774e-38
1.433231884e-38
1.245442853e-38
1.082276414e-38
9.405017401e-39
8.173122503e-39
7.102698583e-39
6.172565532e-39
5.36432348e-39
4.661987566e-39
4.051670726e-39
3.521308181e-39
3.060418133e-39
2.659893917e-39
2.311823454e-39
2.00933244e-39
1.746448124e-39
1.517980986e-39
1.319421955e-39
1.146853122e-39
9.968701833e-40
8.665150604e-40
7.532173701e-40
6.547435762e-40
5.691528156e-40
4.947585215e-40
4.300950832e-40
3.7388888e-40
3.250331164e-40
2.825659576e-40
2.456515348e-40
2.135634408e-40
1.856703919e-40
1.614237698e-40
1.403467985e-40
1.220251417e-40
1.060987339e-40
9.22546849e-41
8.022111687e-41
6.976181229e-41
6.067156767e-41
5.277216113e-41
4.590885477e-41
3.99473633e-41
3.477122945e-41
3.027955548e-41
2.638504701e-41
2.301233248e-41
2.009652813e-41
1.758202483e-41
1.542148182e-41
1.357502127e-41
1.200963268e-41
1.06988141e-41
9.622505046e-42
2.663317486e-42
5.726492207e-43
1.224194173e-43
2.605920258e-44
5.520521307e-45
1.163689896e-45
2.440760017e-46
5.093777188e-47
1.05771111e-47
2.185138856e-48
4.490974973e-49
9.181517471e-50
1.867091751e-50
3.776278904e-51
7.595992732e-52
1.519517729e-52
3.022798547e-53
5.979686661e-54
1.176248754e-54
2.300697664e-55
4.474566997e-56
8.653038104e-57
1.663840353e-57
3.181148087e-58
6.04774522e-59
1.143281737e-59
2.149217404e-60
4.017874457e-61
7.470111064e-62
1.381340197e-62
2.540713332e-63
4.648768609e-64
8.461292193e-65
1.531995203e-65
2.760493207e-66
4.94752457e-67
8.830924693e-68
1.534007235e-68
2.757167172e-69
5.402626683e-70
8.910771038e-71
1.422030707e-71
1.264363409e-71
1.720304763e-70
3.907108543e-72
2.010963337e-71
4.028295047e-73
6.915217558e-71
1.713328614e-71
2.030748753e-72
6.721362401e-72
1.174758431e-71
3.148393206e-73
4.662397294e-73
3.053523126e-72
1.62407219e-73
3.478005653e-73
1.547848381e-76
5.855484412e-74
3.573995351e-74
1.587492189e-73
1.415456584e-74
1.416084006e-74
0
4.125491723e-75
2.487020472e-75
3.26679774e-76
3.159346525e-76
5.746673574e-76
4.109675635e-76
1.802037618e-76
2.830251698e-76
3.489792204e-76
1.557301825e-76
6.079655849e-77
2.196945612e-76
3.129357974e-77
5.582984022e-77
4.57659497e-77
1.757334365e-77
1.579626406e-77
1.662674652e-77
6.72036271e-78
1.346694003e-78
1.870281818e-78
1.046374778e-78
1.697187234e-79
1.462945947e-79
6.101930023e-80
3.804903971e-80
3.072164195e-80
1.566989532e-80
3.90863927e-81
5.040106864e-81
3.555273715e-81
0
3.461593151e-82
2.965677584e-82
1.748295603e-84
6.244972769e-84
1.148667897e-83
1.623028822e-83
4.011967919e-83
3.670172169e-83
3.197404228e-84
0
5.999164261e-85
1.033116852e-83
2.726754003e-84
1.861506137e-84
9.042015029e-86
5.242371876e-85
1.220164867e-85
1.058132079e-84
1.312501773e-84
1.854878526e-86
1.246089964e-84
2.611653143e-84
8.431947186e-84
1.840955875e-84
3.609603913e-85
1.547682121e-84
6.668804618e-84
4.201372371e-84
2.889074262e-84
2.396971681e-84
2.160447846e-84
1.050258352e-83
1.239275513e-84
1.832574837e-84
2.67308455e-84
6.095080956e-84
2.984550305e-84
1.008620233e-84
4.279160239e-84
4.091780382e-84
2.766230128e-84
8.505754573e-84
1.144220882e-84
9.699854199e-84
3.755018345e-84
1.570594018e-84
4.135288886e-86
2.414372818e-84
3.284083613e-84
2.098305338e-84
1.715110363e-84
3.118858178e-84
0
4.124357879e-84
0
3.586101129e-84
1.583510162e-84
0
1.72404173e-84
5.882174722e-84
2.483715578e-86
0
2.313673363e-84
3.571349953e-84
2.408724484e-84
4.558813727e-84
3.042889192e-84
3.238506743e-85
2.357866149e-84
1.090507076e-85
7.3426306e-84
2.191998579e-84
6.939865127e-84
3.027383481e-84
2.294338622e-84
6.361408869e-84
1.886935107e-84
1.533638176e-84
2.454188292e-84
5.151111246e-85
6.546367765e-85
5.740619399e-84
1.195712987e-84
1.85694159e-85
0
7.778307155e-85
2.753061715e-84
3.576795502e-87
0
0
0
1.973430336e-84
8.000618232e-85
2.320110705e-84
5.243806073e-85
6.562011017e-86
6.430788307e-87
0
1.299446787e-85
0
2.397034515e-84
4.073285848e-84
2.649502793e-86
9.094811931e-85
2.027717906e-85
1.092511285e-84
4.546655805e-84
1.94295589e-84
9.785277666e-85
2.0844837e-84
0
2.300241631e-84
7.535236335e-85
2.314023677e-85
1.822389948e-85
1.413391358e-85
2.34715733e-85
0
1.871681714e-87
0
3.301506664e-84
1.730802885e-84
2.44303964e-84
4.887531582e-85
1.889840809e-86
3.347735111e-84
1.757828735e-86
2.5846693e-87
2.136877563e-84
2.562093823e-86
4.751070246e-84
5.930357678e-85
0
1.12069364e-84
1.333460961e-84
8.683052875e-87
1.570293282e-85
4.159187337e-84
3.327450161e-84
1.433800754e-84
1.124407564e-84
6.17686936e-85
1.711190561e-84
3.194963742e-86
0
2.417957466e-84
2.049937738e-84
7.410527793e-85
1.000793769e-84
2.374167168e-84
3.194672582e-86
0
3.386513214e-84
0
)
;

boundaryField
{
    inlet
    {
        type            fixedValue;
        value           uniform 0;
    }
    outlet
    {
        type            zeroGradient;
    }
    wall
    {
        type            empty;
    }
}


// ************************************************************************* //
