/*--------------------------------*- C++ -*----------------------------------*\
  =========                 |
  \\      /  F ield         | OpenFOAM: The Open Source CFD Toolbox
   \\    /   O peration     | Website:  https://openfoam.org
    \\  /    A nd           | Version:  7
     \\/     M anipulation  |
\*---------------------------------------------------------------------------*/
FoamFile
{
    version     2.0;
    format      ascii;
    class       volScalarField;
    location    "0.000558243009";
    object      C7H14OOHO2;
}
// * * * * * * * * * * * * * * * * * * * * * * * * * * * * * * * * * * * * * //

dimensions      [0 0 0 0 0 0 0];

internalField   nonuniform List<scalar> 
1500
(
3.426841284e-20
1.328529704e-19
2.725890142e-19
4.055917218e-19
5.020185861e-19
5.590600506e-19
5.877035586e-19
6.002161821e-19
6.050536366e-19
6.067312187e-19
6.072589532e-19
6.074109841e-19
6.074514167e-19
6.074614121e-19
6.074637225e-19
6.074642244e-19
6.074643273e-19
6.074643472e-19
6.074643509e-19
6.074643515e-19
6.074643516e-19
6.074643516e-19
6.074643516e-19
6.074643516e-19
6.074643516e-19
6.074643516e-19
6.074643516e-19
6.074643516e-19
6.074643516e-19
6.074643516e-19
6.074643516e-19
6.074643516e-19
6.074643516e-19
6.074643516e-19
6.074643516e-19
6.074643516e-19
6.074643516e-19
6.074643516e-19
6.074643516e-19
6.074643516e-19
6.074643516e-19
6.074643516e-19
6.074643516e-19
6.074643516e-19
6.074643516e-19
6.074643516e-19
6.074643515e-19
6.074643515e-19
6.074643515e-19
6.074643515e-19
6.074643515e-19
6.074643515e-19
6.074643515e-19
6.074643515e-19
6.074643515e-19
6.074643515e-19
6.074643515e-19
6.074643515e-19
6.074643515e-19
6.074643515e-19
6.074643515e-19
6.074643515e-19
6.074643515e-19
6.074643515e-19
6.074643515e-19
6.074643515e-19
6.074643515e-19
6.074643515e-19
6.074643515e-19
6.074643515e-19
6.074643515e-19
6.074643515e-19
6.074643515e-19
6.074643515e-19
6.074643515e-19
6.074643515e-19
6.074643515e-19
6.074643515e-19
6.074643516e-19
6.074643516e-19
6.074643516e-19
6.074643516e-19
6.074643516e-19
6.074643516e-19
6.074643516e-19
6.074643516e-19
6.074643516e-19
6.074643516e-19
6.074643516e-19
6.074643516e-19
6.074643516e-19
6.074643516e-19
6.074643516e-19
6.074643516e-19
6.074643515e-19
6.074643515e-19
6.074643515e-19
6.074643515e-19
6.074643515e-19
6.074643515e-19
6.074643515e-19
6.074643515e-19
6.074643515e-19
6.074643515e-19
6.074643515e-19
6.074643515e-19
6.074643515e-19
6.074643515e-19
6.074643515e-19
6.074643515e-19
6.074643515e-19
6.074643515e-19
6.074643515e-19
6.074643515e-19
6.074643515e-19
6.074643515e-19
6.074643515e-19
6.074643515e-19
6.074643515e-19
6.074643515e-19
6.074643515e-19
6.074643515e-19
6.074643515e-19
6.074643515e-19
6.074643515e-19
6.074643515e-19
6.074643515e-19
6.074643515e-19
6.074643514e-19
6.074643514e-19
6.074643514e-19
6.074643514e-19
6.074643515e-19
6.074643515e-19
6.074643515e-19
6.074643515e-19
6.074643515e-19
6.074643515e-19
6.074643515e-19
6.074643515e-19
6.074643515e-19
6.074643515e-19
6.074643515e-19
6.074643515e-19
6.074643515e-19
6.074643515e-19
6.074643515e-19
6.074643515e-19
6.074643515e-19
6.074643515e-19
6.074643515e-19
6.074643515e-19
6.074643515e-19
6.074643515e-19
6.074643515e-19
6.074643515e-19
6.074643515e-19
6.074643515e-19
6.074643515e-19
6.074643515e-19
6.074643515e-19
6.074643515e-19
6.074643515e-19
6.074643515e-19
6.074643515e-19
6.074643515e-19
6.074643515e-19
6.074643515e-19
6.074643515e-19
6.074643515e-19
6.074643515e-19
6.074643515e-19
6.074643515e-19
6.074643515e-19
6.074643515e-19
6.074643515e-19
6.074643515e-19
6.074643515e-19
6.074643515e-19
6.074643515e-19
6.074643515e-19
6.074643515e-19
6.074643515e-19
6.074643515e-19
6.074643515e-19
6.074643515e-19
6.074643515e-19
6.074643515e-19
6.074643515e-19
6.074643515e-19
6.074643515e-19
6.074643515e-19
6.074643515e-19
6.074643515e-19
6.074643515e-19
6.074643515e-19
6.074643515e-19
6.074643515e-19
6.074643515e-19
6.074643515e-19
6.074643515e-19
6.074643515e-19
6.074643515e-19
6.074643515e-19
6.074643515e-19
6.074643515e-19
6.074643515e-19
6.074643515e-19
6.074643515e-19
6.074643515e-19
6.074643515e-19
6.074643515e-19
6.074643515e-19
6.074643516e-19
6.074643516e-19
6.074643516e-19
6.074643516e-19
6.074643516e-19
6.074643516e-19
6.074643516e-19
6.074643516e-19
6.074643516e-19
6.074643516e-19
6.074643516e-19
6.074643516e-19
6.074643516e-19
6.074643516e-19
6.074643516e-19
6.074643516e-19
6.074643517e-19
6.074643517e-19
6.074643517e-19
6.074643518e-19
6.074643518e-19
6.074643519e-19
6.074643519e-19
6.07464352e-19
6.074643521e-19
6.074643522e-19
6.074643525e-19
6.074643529e-19
6.074643545e-19
6.074643615e-19
6.074643957e-19
6.074645548e-19
6.074652297e-19
6.07467776e-19
6.074760973e-19
6.074984978e-19
6.075414659e-19
6.075493594e-19
6.075531011e-19
6.075570129e-19
6.075611025e-19
6.075653764e-19
6.075698423e-19
6.075745087e-19
6.075793851e-19
6.07584481e-19
6.075898067e-19
6.075953728e-19
6.076011903e-19
6.076072708e-19
6.076136264e-19
6.076202699e-19
6.076272146e-19
6.076344744e-19
6.076420639e-19
6.076499986e-19
6.076582943e-19
6.07666968e-19
6.076760372e-19
6.076855204e-19
6.076954371e-19
6.077058073e-19
6.077166525e-19
6.077279949e-19
6.077398579e-19
6.077522659e-19
6.077652447e-19
6.077788211e-19
6.077930235e-19
6.078078814e-19
6.078234259e-19
6.078396896e-19
6.078567067e-19
6.07874513e-19
6.078931462e-19
6.079126459e-19
6.079330534e-19
6.079544122e-19
6.079767681e-19
6.08000169e-19
6.080246653e-19
6.080503097e-19
6.080771579e-19
6.081052682e-19
6.081347018e-19
6.081655231e-19
6.081977999e-19
6.082316031e-19
6.082670075e-19
6.083040918e-19
6.083429384e-19
6.083836344e-19
6.084262711e-19
6.084709446e-19
6.085177562e-19
6.085668123e-19
6.08618225e-19
6.086721125e-19
6.087285989e-19
6.087878154e-19
6.088498999e-19
6.089149979e-19
6.089832629e-19
6.090548564e-19
6.091299493e-19
6.092087216e-19
6.092913635e-19
6.093780758e-19
6.094690705e-19
6.09564572e-19
6.096648171e-19
6.097700567e-19
6.09880556e-19
6.09996596e-19
6.10118474e-19
6.102465053e-19
6.10381024e-19
6.105223847e-19
6.106709635e-19
6.108271599e-19
6.109913982e-19
6.111641295e-19
6.113458336e-19
6.11537021e-19
6.117382354e-19
6.119500561e-19
6.121731005e-19
6.124080273e-19
6.126555394e-19
6.129163875e-19
6.131913738e-19
6.134813558e-19
6.137872508e-19
6.141100407e-19
6.144507767e-19
6.148105853e-19
6.151906737e-19
6.155923368e-19
6.160169634e-19
6.164660445e-19
6.169411805e-19
6.174440908e-19
6.179766222e-19
6.185407597e-19
6.191386371e-19
6.197725483e-19
6.204449602e-19
6.211585259e-19
6.219160988e-19
6.227207482e-19
6.235757755e-19
6.244847314e-19
6.254514349e-19
6.264799928e-19
6.275748207e-19
6.287406651e-19
6.299826275e-19
6.31306189e-19
6.327172367e-19
6.342220916e-19
6.358275379e-19
6.37540854e-19
6.393698443e-19
6.413228738e-19
6.434089025e-19
6.456375236e-19
6.480190006e-19
6.505643083e-19
6.532851737e-19
6.56194119e-19
6.593045057e-19
6.626305803e-19
6.661875208e-19
6.699914848e-19
6.740596581e-19
6.784103046e-19
6.830628167e-19
6.880377663e-19
6.933569564e-19
6.990434722e-19
7.051217333e-19
7.116175446e-19
7.185581471e-19
7.259722681e-19
7.338901698e-19
7.423436973e-19
7.513663242e-19
7.609931961e-19
7.712611728e-19
7.822088664e-19
7.93876677e-19
8.063068251e-19
8.195433795e-19
8.336322814e-19
8.486213639e-19
8.645603661e-19
8.815009416e-19
8.994966621e-19
9.186030139e-19
9.388773878e-19
9.603790631e-19
9.831691827e-19
1.007310723e-18
1.032868451e-18
1.059908884e-18
1.088500224e-18
1.118712303e-18
1.150616502e-18
1.184285674e-18
1.219794052e-18
1.257217151e-18
1.296631654e-18
1.338115303e-18
1.381746766e-18
1.427605507e-18
1.475771643e-18
1.526325792e-18
1.579348915e-18
1.634922154e-18
1.693126656e-18
1.754043399e-18
1.817753006e-18
1.884335558e-18
1.953870399e-18
2.026435944e-18
2.102109476e-18
2.180966947e-18
2.263082778e-18
2.34852965e-18
2.437378313e-18
2.529697374e-18
2.625553112e-18
2.725009272e-18
2.828126887e-18
2.934964083e-18
3.045575911e-18
3.16001417e-18
3.278327248e-18
3.400559966e-18
3.526753437e-18
3.656944935e-18
3.791167767e-18
3.929451174e-18
4.071820223e-18
4.218295738e-18
4.368894218e-18
4.523627794e-18
4.682504182e-18
4.845526664e-18
5.012694078e-18
5.184000826e-18
5.359436897e-18
5.538987908e-18
5.72263516e-18
5.910355706e-18
6.102122444e-18
6.297904219e-18
6.497665939e-18
6.701368716e-18
6.908970008e-18
7.120423792e-18
7.335680735e-18
7.554688392e-18
7.777391414e-18
8.003731762e-18
8.233648949e-18
8.467080279e-18
8.70396111e-18
8.944225123e-18
9.187804606e-18
9.434630751e-18
9.684633957e-18
9.937744153e-18
1.019389113e-17
1.045300487e-17
1.071501594e-17
1.097985582e-17
1.124745729e-17
1.151775488e-17
1.17906852e-17
1.206618745e-17
1.234420382e-17
1.262467996e-17
1.290756549e-17
1.319281449e-17
1.348038604e-17
1.377024479e-17
1.406236151e-17
1.435671375e-17
1.465328649e-17
1.495207278e-17
1.525307453e-17
1.555630321e-17
1.586178071e-17
1.616954018e-17
1.647962692e-17
1.679209936e-17
1.710703008e-17
1.742450689e-17
1.7744634e-17
1.806753317e-17
1.839334528e-17
1.87222314e-17
1.90543742e-17
1.938997961e-17
1.972927843e-17
2.0072528e-17
2.042001407e-17
2.077205262e-17
2.112899186e-17
2.149121429e-17
2.185913883e-17
2.223322303e-17
2.261396544e-17
2.300190798e-17
2.339763844e-17
2.380179313e-17
2.421505958e-17
2.463817938e-17
2.507195105e-17
2.551723318e-17
2.59749474e-17
2.644608138e-17
2.693169214e-17
2.743290933e-17
2.795093858e-17
2.848706489e-17
2.904265604e-17
2.961916612e-17
3.0218139e-17
3.084121188e-17
3.149011887e-17
3.216669453e-17
3.287287749e-17
3.3610714e-17
3.438236152e-17
3.519009228e-17
3.603629684e-17
3.692348763e-17
3.785430245e-17
3.883150805e-17
3.985800354e-17
4.093682399e-17
4.207114383e-17
4.326428047e-17
4.45196978e-17
4.58410098e-17
4.723198424e-17
4.869654643e-17
5.023878318e-17
5.186294684e-17
5.357345962e-17
5.537491813e-17
5.727209826e-17
5.926996042e-17
6.13736552e-17
6.35885296e-17
6.592013378e-17
6.837422855e-17
7.095679357e-17
7.36740365e-17
7.653240309e-17
7.953858835e-17
8.269954897e-17
8.602251708e-17
8.951501552e-17
9.318487472e-17
9.70402513e-17
1.010896488e-16
1.053419401e-16
1.098063926e-16
1.144926958e-16
1.194109906e-16
1.245719026e-16
1.299865779e-16
1.356667217e-16
1.416246406e-16
1.478732888e-16
1.544263177e-16
1.612981298e-16
1.685039371e-16
1.760598246e-16
1.839828195e-16
1.92290966e-16
2.010034093e-16
2.10140487e-16
2.19723834e-16
2.297765014e-16
2.403230978e-16
2.513899583e-16
2.630053556e-16
2.751997697e-16
2.880062441e-16
3.014608683e-16
3.156034473e-16
3.304784474e-16
3.461363538e-16
3.626356397e-16
3.800456475e-16
3.9845083e-16
4.179570203e-16
4.387007286e-16
4.608629566e-16
4.846897542e-16
5.105228383e-16
5.388452284e-16
5.703492921e-16
6.060382303e-16
6.473774569e-16
6.965204185e-16
7.566454614e-16
8.32458339e-16
9.309417623e-16
1.062473354e-15
1.24249291e-15
1.493988579e-15
1.851203721e-15
2.365162973e-15
3.111909008e-15
4.204777547e-15
5.812686902e-15
8.18738335e-15
1.170401829e-14
1.692156532e-14
2.467275243e-14
3.619788649e-14
5.33439235e-14
7.886048217e-14
1.168398238e-13
1.7337051e-13
2.575080042e-13
3.827150612e-13
5.689979088e-13
8.460720572e-13
1.25805026e-12
1.870378313e-12
2.780086351e-12
4.130923825e-12
6.135677304e-12
9.109035029e-12
1.351590881e-11
2.004236341e-11
2.969953523e-11
4.397556638e-11
6.505722689e-11
9.615236147e-11
1.419577013e-10
2.093354484e-10
3.082884212e-10
4.533601549e-10
6.656367255e-10
9.755957396e-10
1.427140593e-09
2.083281696e-09
3.034089136e-09
4.407752589e-09
6.385854473e-09
9.22430169e-09
1.328177945e-08
1.905809487e-08
2.724537135e-08
3.879573445e-08
5.500988443e-08
7.765175959e-08
1.090953261e-07
1.525103444e-07
2.120947131e-07
2.933616313e-07
4.034903075e-07
5.517492463e-07
7.500012366e-07
1.013299012e-06
1.360580059e-06
1.815468031e-06
2.407186143e-06
3.1715838e-06
4.152269952e-06
5.401827898e-06
6.983052463e-06
8.970071549e-06
1.144905902e-05
1.451793667e-05
1.828387242e-05
2.285628122e-05
2.832726761e-05
3.476120398e-05
4.208428119e-05
5.014633223e-05
5.837017011e-05
6.564410731e-05
6.990497999e-05
6.916670917e-05
6.16994789e-05
4.788391086e-05
3.140065831e-05
1.737161775e-05
8.469154074e-06
3.852083746e-06
1.706111949e-06
7.522526882e-07
3.345352192e-07
1.465478311e-07
6.637392848e-08
3.050546995e-08
1.427950262e-08
6.678067446e-09
3.222725668e-09
1.582880361e-09
7.929645699e-10
4.010606687e-10
2.085974282e-10
1.106079526e-10
5.9800004e-11
3.296029337e-11
1.851818432e-11
1.060631745e-11
6.144117065e-12
3.637995374e-12
2.175646684e-12
1.322533528e-12
8.130064379e-13
5.047729638e-13
3.162980417e-13
2.001895221e-13
1.265349462e-13
7.982193314e-14
5.054596494e-14
3.210537838e-14
2.04382942e-14
1.302835466e-14
8.307097149e-15
5.291839063e-15
3.362363063e-15
2.127460202e-15
1.369732873e-15
8.83109505e-16
5.621163802e-16
3.57890432e-16
2.278784473e-16
1.450373311e-16
9.222284584e-17
5.854996021e-17
3.714848734e-17
2.349882121e-17
1.482952478e-17
9.3344225e-18
5.859192743e-18
3.666835561e-18
2.287489553e-18
1.422149768e-18
8.809376749e-19
5.435527299e-19
3.339674895e-19
2.042634821e-19
1.243263698e-19
7.529133322e-20
4.538488824e-20
2.729574289e-20
1.637917594e-20
9.796435967e-21
5.83333405e-21
3.453307245e-21
2.029015642e-21
1.180687432e-21
6.785152318e-22
3.835994783e-22
2.121548959e-22
1.137908917e-22
5.832420831e-23
2.777261453e-23
1.149821178e-23
3.266664226e-24
0
0
0
0
0
0
0
0
0
0
0
0
0
0
0
0
0
0
0
0
0
0
0
0
0
0
0
0
3.850747428e-30
6.803539566e-30
7.131534377e-30
6.339242689e-30
5.190045036e-30
4.043840297e-30
3.048027482e-30
2.242706326e-30
1.620750593e-30
1.154313616e-30
8.126328883e-31
5.666357195e-31
3.91948648e-31
2.692114954e-31
1.838906518e-31
1.248730236e-31
8.446989216e-32
5.687722891e-32
3.807984539e-32
2.539714199e-32
1.687011549e-32
1.115186195e-32
7.392953833e-33
4.841626027e-33
3.202003009e-33
2.068147147e-33
1.337499482e-33
8.580850823e-34
5.515292746e-34
3.529646063e-34
2.254202734e-34
1.436454088e-34
9.17656901e-35
5.927807161e-35
3.793720049e-35
2.45757147e-35
1.639402999e-35
1.167634102e-35
8.638576275e-36
6.943882125e-36
5.142913031e-36
4.337598357e-36
4.653428724e-36
3.31795498e-36
2.693790601e-36
2.779584008e-36
2.335828397e-36
1.492236466e-36
1.004367283e-36
7.44665769e-37
5.93709211e-37
5.249555983e-37
4.999397421e-37
5.45146434e-37
5.044181771e-37
5.502681893e-37
3.841522937e-37
2.792704522e-37
2.133435967e-37
1.847229623e-37
1.31725266e-37
1.027853286e-37
8.510643594e-38
7.076286892e-38
6.180296245e-38
6.512105843e-38
8.475950031e-38
5.812474491e-38
4.371725995e-38
3.5292483e-38
3.638611386e-38
4.54920923e-38
3.951861457e-38
3.538334231e-38
2.617116073e-38
2.357606491e-38
2.766290941e-38
2.129053678e-38
1.882333267e-38
1.433072341e-38
1.015815359e-38
7.870525768e-39
7.331626155e-39
5.605093451e-39
5.165343132e-39
4.151695436e-39
4.182834589e-39
2.501524585e-39
1.50255127e-39
9.456838425e-40
6.083194139e-40
4.586815342e-40
4.887107065e-40
7.071046564e-40
4.273005755e-40
2.537940385e-40
1.684951432e-40
1.282639459e-40
9.977406006e-41
6.979931199e-41
5.265157485e-41
4.679942755e-41
5.31079024e-41
7.446688888e-41
4.371987029e-41
2.950572396e-41
2.936565814e-41
4.246173429e-41
6.991141882e-41
4.35140639e-41
2.954729858e-41
2.378303826e-41
2.535156035e-41
1.898226253e-41
1.467878323e-41
1.265099933e-41
1.312615452e-41
1.670685631e-41
1.525565622e-41
1.0959201e-41
8.304396216e-42
6.555683059e-42
5.26911834e-42
4.604612189e-42
4.626893596e-42
3.644632019e-42
3.290136281e-42
2.642914194e-42
2.376664235e-42
2.355224749e-42
2.001164448e-42
2.00204525e-42
2.472518853e-42
2.172844412e-42
2.407596796e-42
1.521925494e-42
9.805868775e-43
6.621217748e-43
4.959840805e-43
4.485347971e-43
5.162628844e-43
3.872111294e-43
3.308065238e-43
3.304130033e-43
3.022132372e-43
2.934826316e-43
2.883461416e-43
2.97186153e-43
2.787276981e-43
1.982233775e-43
1.435316447e-43
1.101249657e-43
9.45781948e-44
9.520314115e-44
1.111831788e-43
1.113344752e-43
7.605827189e-44
5.325422814e-44
3.649095973e-44
2.473398837e-44
1.689460487e-44
1.223525967e-44
1.027423186e-44
1.105583185e-44
7.365119604e-45
5.166295836e-45
4.203904917e-45
4.099988672e-45
4.835392659e-45
4.998968435e-45
5.403783509e-45
7.244222755e-45
4.554061092e-45
2.91856003e-45
1.898795393e-45
1.31803193e-45
1.033872918e-45
1.045392847e-45
8.263987191e-46
7.685885914e-46
8.814707397e-46
1.203650442e-45
7.843884783e-46
5.38316842e-46
3.62823271e-46
2.683581706e-46
2.3305745e-46
2.403762707e-46
1.845720276e-46
1.586144014e-46
1.46791361e-46
1.335808118e-46
1.238633089e-46
1.021496557e-46
8.828718373e-47
6.693479009e-47
5.401756532e-47
4.678491112e-47
4.76176129e-47
6.011947352e-47
3.850216893e-47
2.576250145e-47
1.911624496e-47
1.725880267e-47
1.305908731e-47
1.042075897e-47
9.836416847e-48
1.219736934e-47
1.915322227e-47
1.169276612e-47
8.259779672e-48
8.669473073e-48
5.398620238e-48
4.020203184e-48
4.036297317e-48
3.682341205e-48
4.527218716e-48
6.977420911e-48
4.594836126e-48
3.484978797e-48
3.268418672e-48
3.069015471e-48
2.480920133e-48
1.857732564e-48
1.653063307e-48
1.833958195e-48
2.451560674e-48
2.140651508e-48
1.55664727e-48
1.357532472e-48
1.519855941e-48
1.7016081e-48
1.150716226e-48
8.154315391e-49
6.329392956e-49
5.863824685e-49
6.495523149e-49
7.279710645e-49
5.527360949e-49
4.144235623e-49
2.972839327e-49
2.42167556e-49
1.783897505e-49
1.614602724e-49
1.134389782e-49
8.559634652e-50
7.439403705e-50
8.006012499e-50
8.861187898e-50
6.677932562e-50
6.157248066e-50
5.593905759e-50
4.55240502e-50
3.01765381e-50
1.966189911e-50
1.291971621e-50
9.063115539e-51
8.1220345e-51
9.492027967e-51
1.405399355e-50
1.009910901e-50
7.99785509e-51
5.930597361e-51
4.643102543e-51
4.072596328e-51
4.380291254e-51
3.303170407e-51
3.048063349e-51
2.037967254e-51
1.472641704e-51
1.157429156e-51
9.138093019e-52
7.399263367e-52
6.14566427e-52
5.623659303e-52
5.555637868e-52
5.280487939e-52
4.966580033e-52
5.070027834e-52
5.148066724e-52
4.580913535e-52
4.518927069e-52
3.374300317e-52
2.684917467e-52
2.27774774e-52
2.031691518e-52
1.787924073e-52
1.586282962e-52
1.532357959e-52
1.607950477e-52
1.994258451e-52
1.645693792e-52
1.311159669e-52
9.380072123e-53
7.916544378e-53
8.524345535e-53
5.994774468e-53
4.461266655e-53
3.856187362e-53
4.281595549e-53
3.204833568e-53
2.358460137e-53
2.263074548e-53
1.913980366e-53
1.851757487e-53
1.416214123e-53
9.426519678e-54
7.261338838e-54
6.946686181e-54
8.209808206e-54
8.316093561e-54
7.736506193e-54
5.806753373e-54
5.545434518e-54
3.956505442e-54
3.370586529e-54
3.707065798e-54
5.088695814e-54
3.545438067e-54
2.367398563e-54
1.69054765e-54
1.271577942e-54
1.061893532e-54
9.471187063e-55
8.490723699e-55
8.010231592e-55
8.007251804e-55
8.760238972e-55
1.021374271e-54
7.439053619e-55
5.670713109e-55
4.463926118e-55
3.735087101e-55
3.330110627e-55
3.420848314e-55
2.659673006e-55
2.30693667e-55
2.194608278e-55
2.291277156e-55
2.731422028e-55
1.897926078e-55
1.360729004e-55
9.59678817e-56
7.386795343e-56
6.672804799e-56
6.956495252e-56
8.22863781e-56
6.665570325e-56
6.088738144e-56
6.747504127e-56
4.486318857e-56
2.977278025e-56
2.067190251e-56
1.685223723e-56
1.711522314e-56
2.154154508e-56
2.078313926e-56
1.821407192e-56
1.238011662e-56
8.542515343e-57
6.105391365e-57
4.310702382e-57
3.074201701e-57
2.315202744e-57
2.050430829e-57
2.381687596e-57
2.058324719e-57
2.200871371e-57
2.892853207e-57
2.211527429e-57
1.804886366e-57
1.676909417e-57
1.825485762e-57
1.411779512e-57
1.276253595e-57
1.415356466e-57
9.062254452e-58
5.940941013e-58
4.307993013e-58
3.881213014e-58
4.678606083e-58
3.05623118e-58
2.370111648e-58
1.503129633e-58
1.104696472e-58
1.101705722e-58
1.459134283e-58
1.178548817e-58
1.126883129e-58
1.190265405e-58
9.966155477e-59
9.378760465e-59
7.772640751e-59
7.663946708e-59
8.759557967e-59
7.837733857e-59
7.980305313e-59
5.535514911e-59
3.804259857e-59
2.600709212e-59
1.793041632e-59
1.28358226e-59
1.018251836e-59
9.926354942e-60
1.269487205e-59
1.066790921e-59
1.059404211e-59
9.535721567e-60
1.019636587e-59
1.338714258e-59
1.253565956e-59
1.0118926e-59
6.71399355e-60
4.578118036e-60
3.435710087e-60
3.215665662e-60
2.113574615e-60
1.512738933e-60
1.23261008e-60
1.126539116e-60
1.165200887e-60
1.295842514e-60
1.742519327e-60
1.8385102e-60
1.224024501e-60
8.553402749e-61
6.506351718e-61
3.920409718e-61
2.417981728e-61
1.639527829e-61
1.276318368e-61
1.165543668e-61
6.13492573e-62
2.321052793e-62
0
0
0
7.676251036e-63
4.895261813e-63
8.868363218e-63
9.402598129e-64
4.040657293e-65
1.246691765e-65
4.2264734e-66
7.356938206e-67
8.212613059e-68
4.750291356e-68
2.044757452e-69
3.619846198e-69
6.740897514e-71
3.129540564e-71
0
4.979105407e-72
3.356666519e-73
5.742270936e-73
0
2.040786598e-73
4.913916064e-73
6.360681385e-74
4.97018068e-74
6.073086909e-75
1.361913397e-74
1.529760386e-74
3.20923126e-75
2.62504735e-76
0
0
0
8.345774245e-77
6.514449407e-77
0
1.381664533e-78
1.647120144e-76
1.262154231e-77
0
0
0
4.8683493e-78
5.8404495e-78
1.004814094e-78
5.315976643e-78
4.477118317e-78
3.108573842e-79
1.785769771e-80
0
6.163915302e-79
3.132838431e-79
1.964563108e-79
2.889435202e-79
0
9.920246615e-80
1.578121011e-79
5.56803322e-80
9.600215317e-81
6.45224868e-82
5.788645666e-83
0
0
1.198934063e-81
7.330520656e-82
1.319947039e-83
0
1.361719191e-84
0
7.252051773e-84
2.20467826e-83
3.93180455e-84
0
0
1.273490225e-83
1.97371143e-83
4.02026787e-85
5.615331469e-84
6.222979204e-84
1.262270233e-85
0
1.283523318e-86
4.148481764e-85
8.315253042e-87
3.390115903e-87
4.955027653e-86
4.660561531e-86
1.824695035e-86
9.838268793e-86
1.831324138e-87
0
1.11265223e-87
4.396367624e-89
5.239583814e-88
1.623786749e-89
0
2.162666932e-89
1.355177202e-88
3.897331978e-89
4.156334309e-89
7.335686713e-90
6.066293656e-92
3.836733032e-93
1.185598008e-93
0
2.525821777e-91
3.359954275e-92
1.678433762e-91
3.287847098e-93
0
2.33228052e-92
8.075846355e-92
4.739062442e-93
1.429848047e-91
2.988031919e-91
2.129903861e-92
1.617632561e-91
2.731179045e-93
6.831270611e-93
0
4.654378665e-92
3.70250885e-92
2.049635486e-92
0
2.405920828e-92
0
2.638442685e-93
0
6.589128963e-92
0
0
4.811177373e-94
0
2.367766539e-92
2.423686421e-92
0
8.352636394e-92
0
0
6.085492498e-93
0
4.008040853e-93
0
7.232775344e-95
1.643609727e-95
1.701587248e-94
0
0
0
2.09797932e-91
2.050025222e-93
0
0
5.44774315e-94
3.526021516e-91
2.580338176e-91
1.521320639e-91
2.684167789e-93
3.657446754e-94
1.634958373e-91
2.802103909e-93
4.819992175e-94
0
5.054069843e-94
1.696083447e-91
0
7.610404445e-92
3.795045813e-93
1.299298329e-91
0
6.183735807e-92
2.209615825e-91
3.445060003e-93
1.746589413e-91
3.375751995e-91
3.843532516e-93
2.525248086e-91
0
0
0
1.695345987e-91
1.711774711e-93
0
9.284969915e-94
0
3.070004916e-92
0
1.027231298e-91
0
0
0
1.59850071e-91
1.53953269e-91
1.582270339e-91
3.254087833e-93
3.317952922e-96
0
0
2.956035251e-91
3.484702027e-92
4.330255765e-94
0
2.147704755e-92
2.582482703e-94
2.943243552e-92
2.525407306e-91
5.468749776e-92
7.384807883e-94
2.593144153e-94
0
3.269926269e-92
4.407701175e-92
5.086683371e-92
0
1.814585033e-92
4.862845396e-93
8.325966389e-92
0
1.636951444e-92
7.674377791e-94
2.087525637e-92
3.107474666e-93
1.512774667e-92
1.414575942e-93
8.210775553e-95
1.902554467e-91
1.229555995e-93
3.623007119e-92
4.552037277e-92
0
0
2.264097547e-92
0
3.392319011e-92
0
5.308959818e-93
0
0
1.578493974e-91
1.111215265e-92
0
4.955272542e-92
2.005269938e-93
9.840914316e-92
6.134091336e-92
0
2.306434314e-94
0
6.602196788e-92
1.665214285e-91
0
0
)
;

boundaryField
{
    inlet
    {
        type            fixedValue;
        value           uniform 0;
    }
    outlet
    {
        type            zeroGradient;
    }
    wall
    {
        type            empty;
    }
}


// ************************************************************************* //
