/*--------------------------------*- C++ -*----------------------------------*\
  =========                 |
  \\      /  F ield         | OpenFOAM: The Open Source CFD Toolbox
   \\    /   O peration     | Website:  https://openfoam.org
    \\  /    A nd           | Version:  7
     \\/     M anipulation  |
\*---------------------------------------------------------------------------*/
FoamFile
{
    version     2.0;
    format      ascii;
    class       volScalarField;
    location    "0.000558243009";
    object      C7H15-1;
}
// * * * * * * * * * * * * * * * * * * * * * * * * * * * * * * * * * * * * * //

dimensions      [0 0 0 0 0 0 0];

internalField   nonuniform List<scalar> 
1500
(
2.908402985e-19
1.129944272e-18
2.321416612e-18
3.459868708e-18
4.289266908e-18
4.782556059e-18
5.031688756e-18
5.141173265e-18
5.18376287e-18
5.198626205e-18
5.203331917e-18
5.204696031e-18
5.205060708e-18
5.205150916e-18
5.205171389e-18
5.205175411e-18
5.205175863e-18
5.205175647e-18
5.205175368e-18
5.205175131e-18
5.205174946e-18
5.205174808e-18
5.205174711e-18
5.205174652e-18
5.205174626e-18
5.20517463e-18
5.205174657e-18
5.205174699e-18
5.205174748e-18
5.205174798e-18
5.205174841e-18
5.205174873e-18
5.205174892e-18
5.205174895e-18
5.205174883e-18
5.205174857e-18
5.205174817e-18
5.205174767e-18
5.205174708e-18
5.205174642e-18
5.205174572e-18
5.205174499e-18
5.205174426e-18
5.205174354e-18
5.205174286e-18
5.205174222e-18
5.205174164e-18
5.205174111e-18
5.205174063e-18
5.205174021e-18
5.205173983e-18
5.205173949e-18
5.205173919e-18
5.205173891e-18
5.205173866e-18
5.205173842e-18
5.205173821e-18
5.205173801e-18
5.205173783e-18
5.205173767e-18
5.205173754e-18
5.205173744e-18
5.205173737e-18
5.205173735e-18
5.205173737e-18
5.205173743e-18
5.205173755e-18
5.205173772e-18
5.205173795e-18
5.205173823e-18
5.205173856e-18
5.205173893e-18
5.205173935e-18
5.20517398e-18
5.205174027e-18
5.205174076e-18
5.205174125e-18
5.205174173e-18
5.20517422e-18
5.205174264e-18
5.205174304e-18
5.205174339e-18
5.205174369e-18
5.205174392e-18
5.205174409e-18
5.205174417e-18
5.205174418e-18
5.205174412e-18
5.205174397e-18
5.205174375e-18
5.205174345e-18
5.205174309e-18
5.205174266e-18
5.205174217e-18
5.205174164e-18
5.205174107e-18
5.205174047e-18
5.205173985e-18
5.205173922e-18
5.205173859e-18
5.205173797e-18
5.205173736e-18
5.205173679e-18
5.205173624e-18
5.205173573e-18
5.205173526e-18
5.205173484e-18
5.205173446e-18
5.205173412e-18
5.205173383e-18
5.205173358e-18
5.205173337e-18
5.205173319e-18
5.205173304e-18
5.205173291e-18
5.205173281e-18
5.205173271e-18
5.205173263e-18
5.205173256e-18
5.20517325e-18
5.205173244e-18
5.205173238e-18
5.205173232e-18
5.205173227e-18
5.205173223e-18
5.205173219e-18
5.205173215e-18
5.205173212e-18
5.20517321e-18
5.205173209e-18
5.205173209e-18
5.20517321e-18
5.205173211e-18
5.205173214e-18
5.205173217e-18
5.205173222e-18
5.205173228e-18
5.205173234e-18
5.205173242e-18
5.205173251e-18
5.205173262e-18
5.205173274e-18
5.205173288e-18
5.205173303e-18
5.205173321e-18
5.20517334e-18
5.205173362e-18
5.205173386e-18
5.205173413e-18
5.205173442e-18
5.205173473e-18
5.205173506e-18
5.205173541e-18
5.205173578e-18
5.205173616e-18
5.205173655e-18
5.205173695e-18
5.205173735e-18
5.205173775e-18
5.205173814e-18
5.205173852e-18
5.20517389e-18
5.205173925e-18
5.205173959e-18
5.20517399e-18
5.205174018e-18
5.205174044e-18
5.205174066e-18
5.205174085e-18
5.2051741e-18
5.205174111e-18
5.205174118e-18
5.20517412e-18
5.205174118e-18
5.205174111e-18
5.205174099e-18
5.205174082e-18
5.20517406e-18
5.205174033e-18
5.205174001e-18
5.205173964e-18
5.205173924e-18
5.205173879e-18
5.205173832e-18
5.205173782e-18
5.20517373e-18
5.205173677e-18
5.205173625e-18
5.205173574e-18
5.205173525e-18
5.20517348e-18
5.205173439e-18
5.205173405e-18
5.205173376e-18
5.205173355e-18
5.205173343e-18
5.205173338e-18
5.205173342e-18
5.205173355e-18
5.205173376e-18
5.205173405e-18
5.205173441e-18
5.205173484e-18
5.205173533e-18
5.205173587e-18
5.205173646e-18
5.205173708e-18
5.205173774e-18
5.205173843e-18
5.205173913e-18
5.205173984e-18
5.205174054e-18
5.205174123e-18
5.205174187e-18
5.205174247e-18
5.2051743e-18
5.205174344e-18
5.205174379e-18
5.205174405e-18
5.205174422e-18
5.205174433e-18
5.205174442e-18
5.205174453e-18
5.205174474e-18
5.205174512e-18
5.205174574e-18
5.205174668e-18
5.2051748e-18
5.205174974e-18
5.205175192e-18
5.205175451e-18
5.205175745e-18
5.205176061e-18
5.205176386e-18
5.205176702e-18
5.20517699e-18
5.205177231e-18
5.205177409e-18
5.205177515e-18
5.205177544e-18
5.20517751e-18
5.205177453e-18
5.205177513e-18
5.205178192e-18
5.205181294e-18
5.205192818e-18
5.205230341e-18
5.20533676e-18
5.205588195e-18
5.206020063e-18
5.206113446e-18
5.206152487e-18
5.206193214e-18
5.206235708e-18
5.206280031e-18
5.206326254e-18
5.206374456e-18
5.206424724e-18
5.206477152e-18
5.206531835e-18
5.206588873e-18
5.206648371e-18
5.206710438e-18
5.206775188e-18
5.206842741e-18
5.206913221e-18
5.20698676e-18
5.207063494e-18
5.207143567e-18
5.207227129e-18
5.207314336e-18
5.207405353e-18
5.207500353e-18
5.207599515e-18
5.207703028e-18
5.20781109e-18
5.207923908e-18
5.208041699e-18
5.208164691e-18
5.208293122e-18
5.20842724e-18
5.20856731e-18
5.208713604e-18
5.20886641e-18
5.209026032e-18
5.209192784e-18
5.209367e-18
5.209549029e-18
5.209739235e-18
5.209938004e-18
5.210145739e-18
5.210362863e-18
5.210589822e-18
5.210827083e-18
5.211075138e-18
5.211334503e-18
5.211605722e-18
5.211889367e-18
5.212186038e-18
5.212496368e-18
5.212821025e-18
5.213160708e-18
5.213516158e-18
5.213888153e-18
5.214277513e-18
5.214685106e-18
5.215111844e-18
5.21555869e-18
5.216026664e-18
5.216516838e-18
5.217030349e-18
5.217568397e-18
5.218132251e-18
5.218723255e-18
5.219342829e-18
5.219992479e-18
5.220673799e-18
5.22138848e-18
5.222138314e-18
5.222925201e-18
5.223751161e-18
5.224618337e-18
5.225529005e-18
5.226485586e-18
5.227490654e-18
5.228546949e-18
5.229657384e-18
5.230825065e-18
5.2320533e-18
5.233345613e-18
5.234705765e-18
5.236137767e-18
5.237645898e-18
5.239234727e-18
5.240909137e-18
5.24267434e-18
5.244535908e-18
5.246499799e-18
5.248572383e-18
5.250760473e-18
5.253071359e-18
5.25551284e-18
5.258093264e-18
5.260821567e-18
5.263707316e-18
5.266760753e-18
5.269992843e-18
5.273415329e-18
5.277040784e-18
5.28088267e-18
5.284955401e-18
5.289274409e-18
5.293856212e-18
5.29871849e-18
5.303880165e-18
5.309361481e-18
5.315184091e-18
5.321371153e-18
5.327947427e-18
5.334939374e-18
5.342375267e-18
5.350285303e-18
5.35870172e-18
5.367658927e-18
5.377193624e-18
5.387344947e-18
5.398154603e-18
5.40966702e-18
5.421929496e-18
5.434992363e-18
5.448909145e-18
5.46373673e-18
5.479535547e-18
5.49636974e-18
5.51430736e-18
5.53342055e-18
5.55378574e-18
5.575483848e-18
5.598600479e-18
5.623226133e-18
5.64945641e-18
5.677392225e-18
5.70714002e-18
5.738811973e-18
5.772526217e-18
5.808407053e-18
5.846585161e-18
5.887197811e-18
5.930389074e-18
5.976310023e-18
6.025118933e-18
6.076981476e-18
6.132070908e-18
6.190568246e-18
6.252662439e-18
6.318550526e-18
6.388437787e-18
6.462537871e-18
6.541072924e-18
6.624273688e-18
6.712379595e-18
6.805638831e-18
6.904308391e-18
7.008654107e-18
7.118950657e-18
7.235481549e-18
7.358539084e-18
7.488424286e-18
7.625446816e-18
7.769924846e-18
7.922184918e-18
8.082561759e-18
8.251398079e-18
8.429044328e-18
8.615858424e-18
8.812205454e-18
9.018457335e-18
9.234992447e-18
9.462195233e-18
9.700455761e-18
9.950169262e-18
1.021173563e-17
1.048555889e-17
1.077204664e-17
1.107160945e-17
1.138466027e-17
1.171161375e-17
1.205288557e-17
1.240889177e-17
1.278004799e-17
1.316676875e-17
1.356946669e-17
1.398855177e-17
1.44244305e-17
1.487750511e-17
1.534817278e-17
1.583682475e-17
1.634384555e-17
1.686961215e-17
1.741449314e-17
1.797884793e-17
1.856302591e-17
1.916736566e-17
1.979219419e-17
2.043782615e-17
2.11045631e-17
2.179269281e-17
2.250248852e-17
2.323420836e-17
2.398809466e-17
2.476437342e-17
2.556325374e-17
2.638492732e-17
2.722956805e-17
2.809733157e-17
2.898835495e-17
2.990275637e-17
3.084063494e-17
3.18020705e-17
3.278712348e-17
3.379583493e-17
3.482822648e-17
3.588430046e-17
3.696404005e-17
3.806740953e-17
3.919435455e-17
4.034480257e-17
4.151866325e-17
4.271582902e-17
4.393617568e-17
4.51795631e-17
4.644583595e-17
4.773482458e-17
4.904634596e-17
5.038020464e-17
5.173619389e-17
5.311409684e-17
5.451368778e-17
5.593473348e-17
5.737699462e-17
5.884022732e-17
6.032418478e-17
6.182861894e-17
6.33532823e-17
6.489792981e-17
6.646232089e-17
6.804622147e-17
6.964940624e-17
7.127166092e-17
7.291278469e-17
7.457259273e-17
7.625091884e-17
7.794761825e-17
7.966257047e-17
8.139568239e-17
8.314689138e-17
8.491616864e-17
8.670352266e-17
8.850900284e-17
9.033270326e-17
9.217476663e-17
9.403538842e-17
9.591482113e-17
9.781337884e-17
9.973144185e-17
1.016694616e-16
1.036279657e-16
1.056075633e-16
1.076089507e-16
1.096329169e-16
1.116803498e-16
1.137522424e-16
1.158496998e-16
1.179739448e-16
1.201263274e-16
1.223083297e-16
1.24521574e-16
1.267678312e-16
1.290490284e-16
1.313672582e-16
1.33724787e-16
1.361240643e-16
1.385677316e-16
1.410586324e-16
1.435998215e-16
1.46194575e-16
1.488464007e-16
1.515590482e-16
1.543365196e-16
1.571830806e-16
1.601032721e-16
1.631019215e-16
1.661841545e-16
1.693554082e-16
1.726214426e-16
1.759883527e-16
1.79462581e-16
1.830509308e-16
1.867605797e-16
1.905990923e-16
1.945744345e-16
1.986949865e-16
2.029695576e-16
2.074073997e-16
2.120182224e-16
2.168122074e-16
2.218000241e-16
2.269928444e-16
2.32402359e-16
2.380407933e-16
2.439209245e-16
2.500560981e-16
2.564602463e-16
2.63147906e-16
2.70134238e-16
2.774350471e-16
2.85066803e-16
2.930466617e-16
3.013924895e-16
3.101228862e-16
3.192572119e-16
3.288156139e-16
3.388190556e-16
3.492893483e-16
3.602491836e-16
3.717221697e-16
3.837328692e-16
3.963068399e-16
4.094706791e-16
4.23252071e-16
4.376798374e-16
4.527839925e-16
4.685958024e-16
4.851478481e-16
5.024740944e-16
5.206099631e-16
5.395924131e-16
5.594600253e-16
5.802530946e-16
6.020137297e-16
6.247859596e-16
6.486158492e-16
6.735516246e-16
6.996438089e-16
7.269453697e-16
7.555118815e-16
7.854017044e-16
8.166761825e-16
8.493998676e-16
8.836407733e-16
9.194706685e-16
9.569654226e-16
9.962054166e-16
1.037276044e-15
1.080268333e-15
1.125279723e-15
1.172415072e-15
1.221787949e-15
1.27352235e-15
1.327754959e-15
1.384638195e-15
1.444344312e-15
1.507070959e-15
1.573048762e-15
1.642551679e-15
1.715911189e-15
1.793535773e-15
1.875937691e-15
1.96376984e-15
2.057876516e-15
2.159363374e-15
2.269693889e-15
2.39082239e-15
2.525377587e-15
2.676915771e-15
2.850270198e-15
3.05203319e-15
3.291221409e-15
3.580193888e-15
3.935918815e-15
4.381721527e-15
4.949696379e-15
5.684034449e-15
6.645614551e-15
7.918336675e-15
9.617858463e-15
1.190364539e-14
1.49955899e-14
1.919692938e-14
2.492584653e-14
3.275903582e-14
4.349175868e-14
5.822061475e-14
7.845760234e-14
1.062872656e-13
1.445831596e-13
1.973059537e-13
2.699138581e-13
3.699275332e-13
5.077073841e-13
6.97522712e-13
9.590217341e-13
1.319251899e-12
1.815435155e-12
2.49877824e-12
3.439700875e-12
4.735004725e-12
6.517696305e-12
8.970435234e-12
1.2343929e-11
1.6982068e-11
2.335623175e-11
3.211205366e-11
4.413307941e-11
6.062728718e-11
8.324447726e-11
1.142352402e-10
1.566657751e-10
2.147074986e-10
2.940264775e-10
4.023055964e-10
5.499425112e-10
7.509793541e-10
1.024336476e-09
1.395442922e-09
1.898381548e-09
2.578697526e-09
3.497056016e-09
4.733978827e-09
6.395941088e-09
8.623167595e-09
1.159953417e-08
1.556505113e-08
2.083148256e-08
2.780173394e-08
3.699371949e-08
4.906949499e-08
6.487050705e-08
8.545985993e-08
1.121725254e-07
1.466744065e-07
1.910310941e-07
2.477869862e-07
3.200551454e-07
4.116177509e-07
5.270361622e-07
6.717682029e-07
8.522879034e-07
1.076198875e-06
1.352325771e-06
1.69075672e-06
2.102792752e-06
2.600734326e-06
3.197402193e-06
3.905252522e-06
4.734917794e-06
5.693010436e-06
6.778524909e-06
7.982283166e-06
9.27553257e-06
1.062893502e-05
1.198604401e-05
1.328289393e-05
1.441305845e-05
1.534445438e-05
1.600143109e-05
1.624823728e-05
1.589551448e-05
1.482308818e-05
1.315586408e-05
1.120672848e-05
9.298414551e-06
7.629416489e-06
6.269114171e-06
5.179634106e-06
4.36891501e-06
3.736720134e-06
3.213963846e-06
2.736651333e-06
2.29425938e-06
1.867070999e-06
1.464659621e-06
1.101455494e-06
7.958382685e-07
5.497971351e-07
3.639973586e-07
2.32314386e-07
1.444580291e-07
8.838165812e-08
5.331843338e-08
3.217368449e-08
1.935390272e-08
1.16951403e-08
7.083537808e-09
4.301238637e-09
2.619572367e-09
1.602750885e-09
9.761013027e-10
5.917387892e-10
3.591993102e-10
2.183849711e-10
1.329987288e-10
8.113455835e-11
4.95666699e-11
3.030909688e-11
1.853117532e-11
1.131764724e-11
7.039793938e-12
4.401128073e-12
2.732698618e-12
1.705136041e-12
1.069800807e-12
6.75058305e-13
4.284873432e-13
2.736036715e-13
1.759558176e-13
1.137896546e-13
7.405546539e-14
4.850190968e-14
3.196409419e-14
2.119248153e-14
1.413161088e-14
9.473954631e-15
6.382798464e-15
4.319369339e-15
2.934505186e-15
2.000438609e-15
1.367612796e-15
9.371892714e-16
6.434390778e-16
4.42392071e-16
3.044714383e-16
2.09682029e-16
1.444454717e-16
9.950463341e-17
6.852718172e-17
4.716935255e-17
3.244472568e-17
2.229647016e-17
1.530615937e-17
1.049477347e-17
7.186250055e-18
4.913666254e-18
3.354591461e-18
2.286466457e-18
1.555768402e-18
1.056686201e-18
7.163674267e-19
4.847112187e-19
3.273082259e-19
2.2055981e-19
1.48306343e-19
9.950018392e-20
6.66014289e-20
4.447331763e-20
2.962270103e-20
1.967851163e-20
1.303413936e-20
8.602447425e-21
5.656633247e-21
3.706561413e-21
2.420561635e-21
1.575531356e-21
1.022179215e-21
6.610717311e-22
4.262698772e-22
2.742347917e-22
1.763578657e-22
1.134677489e-22
7.294376924e-23
4.680505072e-23
2.995850435e-23
1.911494187e-23
1.214823696e-23
7.683327806e-24
4.830781467e-24
3.015459655e-24
1.865746081e-24
1.141834999e-24
6.892624249e-25
4.087771919e-25
2.368031341e-25
1.327729968e-25
7.092352028e-26
3.49873006e-26
1.476517559e-26
3.918622638e-27
0
0
0
0
0
0
0
0
0
0
0
0
0
0
0
0
0
0
0
0
0
0
0
0
0
0
0
0
0
0
8.174552025e-33
1.841203695e-32
2.106534575e-32
1.998802654e-32
1.733453915e-32
1.425363212e-32
1.131279667e-32
8.754194717e-33
6.646158772e-33
4.970797025e-33
3.673079685e-33
2.687120392e-33
1.949263468e-33
1.403770113e-33
1.004534066e-33
7.148125972e-34
5.060880456e-34
3.566593776e-34
2.502646503e-34
1.748675193e-34
1.216509516e-34
8.420981683e-35
5.78815925e-35
3.953767909e-35
2.685651198e-35
1.814949016e-35
1.220711394e-35
8.173570264e-36
5.449339842e-36
3.617966687e-36
2.392247429e-36
1.575373572e-36
1.033250248e-36
6.749931534e-37
4.393155021e-37
2.851031932e-37
1.849462473e-37
1.20119206e-37
7.809401492e-38
5.079716357e-38
3.301789653e-38
2.137924141e-38
1.377533693e-38
8.825395419e-39
5.618113067e-39
3.550355843e-39
2.224812936e-39
1.380068628e-39
8.458676453e-40
5.107819781e-40
3.025558565e-40
1.746997024e-40
9.72813826e-41
5.130148909e-41
2.464483782e-41
9.715355486e-42
1.77568339e-42
0
0
0
0
0
0
0
0
0
0
0
0
0
0
0
0
0
0
0
0
0
0
0
0
5.941282475e-46
1.301728371e-45
1.232771445e-45
1.271380336e-45
1.056305919e-45
9.503239757e-46
9.811431173e-46
1.200214185e-45
1.008188496e-45
1.015074242e-45
7.300290282e-46
5.112399375e-46
3.773617378e-46
2.933557184e-46
2.519826777e-46
2.075911757e-46
1.933991138e-46
2.059010687e-46
2.461562566e-46
2.122481644e-46
1.91425475e-46
1.815624429e-46
1.908803498e-46
1.941316921e-46
1.311518688e-46
8.852229727e-47
6.020447427e-47
4.205601853e-47
3.172629032e-47
2.7336676e-47
2.723502016e-47
2.06532702e-47
1.747482847e-47
1.196989824e-47
8.373053036e-48
6.254132612e-48
5.393903374e-48
5.768501333e-48
6.533265927e-48
4.672146413e-48
3.840234552e-48
3.000030093e-48
2.678715203e-48
2.815384427e-48
2.396793906e-48
1.911819855e-48
1.732960549e-48
1.260295147e-48
9.766894007e-49
7.686070449e-49
6.053560575e-49
4.967453843e-49
4.496620206e-49
4.487133433e-49
5.107887277e-49
6.572654258e-49
8.571509133e-49
6.33824472e-49
5.177298118e-49
3.901471709e-49
2.615951698e-49
1.758301056e-49
1.195370009e-49
8.344805668e-50
6.167377618e-50
4.98460469e-50
4.409554504e-50
3.515180915e-50
2.974293669e-50
2.610204476e-50
2.404662108e-50
2.500489332e-50
2.903557783e-50
3.859861451e-50
3.358367409e-50
2.734925984e-50
2.45251099e-50
2.561789577e-50
1.770813981e-50
1.25294912e-50
8.927487406e-51
6.31399695e-51
4.557044883e-51
3.603340324e-51
2.63563182e-51
2.149919838e-51
2.180939039e-51
1.719479469e-51
1.621500773e-51
1.308653661e-51
1.381290335e-51
1.961730719e-51
2.394943389e-51
1.649711258e-51
1.412785135e-51
1.258436004e-51
1.283292609e-51
1.205217404e-51
1.352301881e-51
1.315480685e-51
1.539180408e-51
1.854552082e-51
1.570502487e-51
1.136465371e-51
8.916273292e-52
8.023219227e-52
7.713567908e-52
6.223902975e-52
4.975900249e-52
4.454995724e-52
4.04717604e-52
4.404323306e-52
4.005646443e-52
3.14181764e-52
2.71914698e-52
2.318585533e-52
2.254752834e-52
1.807605291e-52
1.698755542e-52
1.41629753e-52
1.369040252e-52
1.389893628e-52
1.564278067e-52
1.467140172e-52
1.226997229e-52
1.133669258e-52
1.072981117e-52
9.38349952e-53
8.163279864e-53
7.16587104e-53
6.077607497e-53
5.355519345e-53
4.836461499e-53
4.702965634e-53
4.836036433e-53
4.894140957e-53
4.679265182e-53
4.4687135e-53
4.254740221e-53
4.040480153e-53
3.815976201e-53
3.489878212e-53
3.376658501e-53
3.117455844e-53
2.929928216e-53
2.732971889e-53
2.579446452e-53
2.410428606e-53
2.285876742e-53
2.163886268e-53
2.062359252e-53
1.946141049e-53
1.856860432e-53
1.752317082e-53
1.667946147e-53
1.584963252e-53
1.495208802e-53
1.411603302e-53
1.334282345e-53
1.253927982e-53
1.180327866e-53
1.109428113e-53
1.048007864e-53
9.954277695e-54
9.431160042e-54
8.96209485e-54
8.484495566e-54
8.036648927e-54
7.609391328e-54
7.177770809e-54
6.806859982e-54
6.445253426e-54
6.115853538e-54
5.78589211e-54
5.478863566e-54
5.178936029e-54
4.898440757e-54
4.642161413e-54
4.400795384e-54
4.171296854e-54
3.952067228e-54
3.744095699e-54
3.546263293e-54
3.359779812e-54
3.185655662e-54
3.020051762e-54
2.861322162e-54
2.710988883e-54
2.56974988e-54
2.435918155e-54
2.308042634e-54
2.189594012e-54
2.077165853e-54
1.969941701e-54
1.867970502e-54
1.772176066e-54
1.680969999e-54
1.594855934e-54
1.513567967e-54
1.435655059e-54
1.362260865e-54
1.292241347e-54
1.225867275e-54
1.16301006e-54
1.103391431e-54
1.046606336e-54
9.927353657e-55
9.411793915e-55
8.930144136e-55
8.47953482e-55
8.048774264e-55
7.639080018e-55
7.251203147e-55
6.884328719e-55
6.53938827e-55
6.20997913e-55
5.896712401e-55
5.598153315e-55
5.314887634e-55
5.049566527e-55
4.795588578e-55
4.554664442e-55
4.32481966e-55
4.10610405e-55
3.89960814e-55
3.703582977e-55
3.516783342e-55
3.342744427e-55
3.176976051e-55
3.01741229e-55
2.86629642e-55
2.723396264e-55
2.586916285e-55
2.45737963e-55
2.335952138e-55
2.219671702e-55
2.108054001e-55
2.002103152e-55
1.903141826e-55
1.810275427e-55
1.720761452e-55
1.63615778e-55
1.555021346e-55
1.479026684e-55
1.405057666e-55
1.335103587e-55
1.269026557e-55
1.205659511e-55
1.146246853e-55
1.089070055e-55
1.035913623e-55
9.845431385e-56
9.361787857e-56
8.896627177e-56
8.443868197e-56
8.023215604e-56
7.619547492e-56
7.235832558e-56
6.871598499e-56
6.540387781e-56
6.217552769e-56
5.917726097e-56
5.634386719e-56
5.359390883e-56
5.093585556e-56
4.849737549e-56
4.608733291e-56
4.38239733e-56
4.173709902e-56
3.971612853e-56
3.775309525e-56
3.593712043e-56
3.416996163e-56
3.248549222e-56
3.081772253e-56
2.930972015e-56
2.786341064e-56
2.649425853e-56
2.520469217e-56
2.400509772e-56
2.287855337e-56
2.178382984e-56
2.075037818e-56
1.970808258e-56
1.869741614e-56
1.774064026e-56
1.684727885e-56
1.601044159e-56
1.525041846e-56
1.451636562e-56
1.379585478e-56
1.30851779e-56
1.244048936e-56
1.18343886e-56
1.125835861e-56
1.069188202e-56
1.01661806e-56
9.67921533e-57
9.218583081e-57
8.792751807e-57
8.360425699e-57
7.941569234e-57
7.544473059e-57
7.176252296e-57
6.819759535e-57
6.46897838e-57
6.153017826e-57
5.840370621e-57
5.534966185e-57
5.247992812e-57
4.988580759e-57
4.749898271e-57
2.834471577e-57
1.451058236e-57
7.454826375e-58
3.631127156e-58
1.733089435e-58
8.831166526e-59
4.633205622e-59
2.41040521e-59
1.191540827e-59
6.393220141e-60
2.469308587e-60
1.200105776e-60
9.387352507e-61
4.684758818e-61
1.888363586e-61
5.197163897e-62
9.338075535e-63
1.907191273e-62
2.232639395e-62
1.465137256e-63
3.218878428e-63
2.12948024e-64
1.764781917e-63
2.66469609e-64
5.905642658e-64
3.508313588e-64
7.493391524e-65
5.062742817e-65
1.001658195e-65
1.800695156e-66
0
3.576756702e-66
1.768021992e-66
4.814566199e-68
0
1.185292134e-66
5.352738285e-67
2.670984535e-68
1.181811094e-68
4.080162081e-67
6.28323253e-68
1.864853721e-67
1.163077676e-67
0
0
2.712364213e-68
1.002260834e-69
0
1.310653277e-68
0
8.310842267e-69
3.137859995e-69
7.865484841e-71
0
5.024802201e-69
3.267176459e-71
0
7.113019847e-70
5.285713574e-70
1.10061232e-70
2.604479056e-71
1.390379686e-70
0
8.907694558e-74
2.483468899e-71
4.341047986e-72
1.135608154e-73
0
1.692409585e-73
2.240136902e-73
3.017928214e-73
0
3.951131732e-74
9.604789348e-73
3.249211078e-73
1.340447145e-73
1.384991124e-73
4.103879288e-74
7.223290644e-75
4.701392272e-75
5.090470569e-74
7.968901062e-75
5.304342407e-75
0
0
6.663261701e-78
4.85807531e-76
8.126465066e-77
3.054565497e-76
0
0
5.064495297e-78
0
1.187979107e-78
1.153125156e-77
6.129692077e-78
1.645872351e-78
2.186770264e-78
4.838535336e-79
1.936872285e-81
3.902700893e-82
4.174939152e-80
2.867627e-80
2.182311914e-80
0
0
0
4.294719592e-82
7.446602289e-81
4.761741755e-81
1.269269193e-82
0
0
8.218572086e-81
0
1.663159112e-83
1.742252975e-81
0
6.81647746e-82
5.943425656e-82
2.420007792e-81
1.039842777e-82
3.722626053e-82
2.019506796e-82
1.098678857e-81
0
1.616740334e-81
4.475401621e-82
8.809079607e-83
0
5.929902311e-82
0
0
1.22675438e-81
2.467349325e-81
1.097848658e-81
7.077220115e-83
2.004263083e-81
0
4.202599007e-81
2.777144855e-82
5.269597535e-81
1.024421117e-82
0
6.994074566e-82
5.701066922e-81
1.000874864e-80
3.492609033e-81
1.27130359e-82
2.636512237e-82
0
3.527426343e-81
4.078792649e-82
9.454702383e-81
1.455467143e-81
8.401970828e-81
6.20996655e-81
1.600576074e-80
6.062279681e-81
9.393767438e-81
5.510698294e-82
2.099324091e-80
1.531220422e-80
1.912388456e-82
1.324851744e-80
9.253134651e-81
7.378938882e-81
8.441888492e-81
0
1.063169682e-80
7.019859127e-81
7.890383854e-81
2.228450965e-80
0
2.136262673e-80
2.248686304e-81
3.794363084e-81
4.123689067e-81
5.316735834e-81
0
4.39025008e-81
6.775245118e-83
6.577431093e-81
4.259296167e-81
1.349767219e-80
0
7.3910906e-84
5.447219098e-81
0
3.545250634e-80
9.520691187e-81
1.908590255e-80
1.634506037e-82
1.021318168e-80
0
1.714765234e-80
1.457242478e-80
2.423283103e-81
6.627882604e-83
1.374291302e-80
4.508452276e-81
2.832389285e-83
2.314873077e-81
7.979246084e-81
5.828153028e-81
6.477416461e-81
6.936238344e-83
5.177170828e-81
6.608927797e-82
5.501488781e-81
0
0
7.927682479e-81
7.075762952e-82
1.190042005e-80
7.080776331e-81
2.223799336e-82
1.670553363e-81
0
3.446289664e-82
2.333327993e-81
2.094208964e-81
1.689186467e-81
3.877728011e-81
0
2.370150273e-81
1.798912052e-81
3.433489534e-82
0
1.884497588e-81
0
0
9.580800359e-82
6.876169328e-82
0
0
3.288144439e-81
7.988706268e-82
2.150994776e-81
0
2.478872702e-84
3.065599191e-81
5.768767259e-81
0
3.089063632e-81
9.935258712e-82
0
1.791415067e-83
0
1.285523137e-80
)
;

boundaryField
{
    inlet
    {
        type            fixedValue;
        value           uniform 0;
    }
    outlet
    {
        type            zeroGradient;
    }
    wall
    {
        type            empty;
    }
}


// ************************************************************************* //
