/*--------------------------------*- C++ -*----------------------------------*\
  =========                 |
  \\      /  F ield         | OpenFOAM: The Open Source CFD Toolbox
   \\    /   O peration     | Website:  https://openfoam.org
    \\  /    A nd           | Version:  7
     \\/     M anipulation  |
\*---------------------------------------------------------------------------*/
FoamFile
{
    version     2.0;
    format      ascii;
    class       volScalarField;
    location    "0.000558243009";
    object      C7H15O2_0;
}
// * * * * * * * * * * * * * * * * * * * * * * * * * * * * * * * * * * * * * //

dimensions      [0 0 0 0 0 0 0];

internalField   nonuniform List<scalar> 
1500
(
3.174891097e-18
1.235398329e-17
2.542381375e-17
3.79309407e-17
4.704694717e-17
5.246686412e-17
5.520165812e-17
5.640192309e-17
5.686807084e-17
5.703042155e-17
5.70816574e-17
5.70963938e-17
5.710022692e-17
5.71010725e-17
5.710116925e-17
5.710110332e-17
5.71010175e-17
5.710094277e-17
5.71008832e-17
5.710083696e-17
5.710080157e-17
5.71007752e-17
5.710075671e-17
5.710074538e-17
5.710074053e-17
5.710074124e-17
5.710074632e-17
5.710075434e-17
5.710076378e-17
5.71007732e-17
5.710078142e-17
5.710078755e-17
5.710079103e-17
5.710079163e-17
5.710078932e-17
5.710078428e-17
5.710077679e-17
5.71007672e-17
5.71007559e-17
5.710074332e-17
5.710072988e-17
5.710071599e-17
5.710070206e-17
5.710068843e-17
5.710067542e-17
5.710066325e-17
5.710065206e-17
5.710064192e-17
5.710063284e-17
5.710062475e-17
5.710061754e-17
5.71006111e-17
5.71006053e-17
5.710060002e-17
5.710059518e-17
5.71005907e-17
5.710058656e-17
5.710058276e-17
5.710057933e-17
5.710057632e-17
5.71005738e-17
5.710057187e-17
5.710057061e-17
5.710057011e-17
5.710057046e-17
5.710057173e-17
5.710057397e-17
5.710057724e-17
5.710058153e-17
5.710058682e-17
5.710059307e-17
5.71006002e-17
5.71006081e-17
5.710061663e-17
5.710062562e-17
5.71006349e-17
5.710064426e-17
5.71006535e-17
5.710066241e-17
5.710067078e-17
5.710067841e-17
5.710068513e-17
5.710069077e-17
5.710069518e-17
5.710069827e-17
5.710069993e-17
5.710070012e-17
5.710069881e-17
5.710069601e-17
5.710069174e-17
5.710068608e-17
5.710067911e-17
5.710067093e-17
5.71006617e-17
5.710065155e-17
5.710064066e-17
5.710062921e-17
5.710061738e-17
5.710060536e-17
5.710059333e-17
5.710058147e-17
5.710056994e-17
5.71005589e-17
5.710054847e-17
5.710053875e-17
5.710052982e-17
5.710052173e-17
5.71005145e-17
5.710050813e-17
5.710050259e-17
5.710049782e-17
5.710049377e-17
5.710049034e-17
5.710048746e-17
5.710048504e-17
5.710048299e-17
5.710048123e-17
5.710047969e-17
5.710047831e-17
5.710047705e-17
5.710047587e-17
5.710047477e-17
5.710047373e-17
5.710047276e-17
5.710047188e-17
5.710047109e-17
5.710047041e-17
5.710046987e-17
5.710046947e-17
5.710046924e-17
5.710046919e-17
5.710046931e-17
5.710046961e-17
5.71004701e-17
5.710047078e-17
5.710047165e-17
5.710047271e-17
5.710047399e-17
5.710047548e-17
5.710047721e-17
5.710047921e-17
5.71004815e-17
5.71004841e-17
5.710048705e-17
5.710049038e-17
5.710049412e-17
5.710049828e-17
5.710050288e-17
5.710050792e-17
5.710051341e-17
5.710051932e-17
5.710052563e-17
5.71005323e-17
5.710053929e-17
5.710054654e-17
5.710055399e-17
5.710056156e-17
5.710056919e-17
5.710057679e-17
5.71005843e-17
5.710059163e-17
5.710059871e-17
5.710060548e-17
5.710061187e-17
5.71006178e-17
5.710062323e-17
5.71006281e-17
5.710063234e-17
5.710063592e-17
5.710063878e-17
5.710064087e-17
5.710064216e-17
5.710064259e-17
5.710064214e-17
5.710064077e-17
5.710063847e-17
5.710063521e-17
5.710063099e-17
5.710062583e-17
5.710061976e-17
5.710061281e-17
5.710060507e-17
5.71005966e-17
5.710058752e-17
5.710057797e-17
5.710056809e-17
5.710055806e-17
5.710054806e-17
5.710053831e-17
5.710052901e-17
5.710052038e-17
5.710051264e-17
5.710050598e-17
5.710050059e-17
5.71004966e-17
5.710049415e-17
5.71004933e-17
5.710049409e-17
5.710049651e-17
5.710050051e-17
5.710050601e-17
5.710051291e-17
5.710052108e-17
5.710053039e-17
5.710054071e-17
5.710055191e-17
5.710056386e-17
5.710057643e-17
5.710058948e-17
5.710060285e-17
5.710061636e-17
5.710062977e-17
5.710064282e-17
5.710065519e-17
5.710066655e-17
5.71006766e-17
5.710068504e-17
5.710069172e-17
5.71006966e-17
5.710069986e-17
5.710070195e-17
5.710070356e-17
5.71007057e-17
5.71007096e-17
5.710071668e-17
5.710072843e-17
5.710074627e-17
5.710077141e-17
5.710080464e-17
5.710084619e-17
5.710089557e-17
5.710095151e-17
5.710101192e-17
5.710107399e-17
5.710113435e-17
5.710118933e-17
5.710123537e-17
5.710126939e-17
5.710128932e-17
5.710129452e-17
5.710128626e-17
5.710126819e-17
5.710124716e-17
5.710123572e-17
5.71012609e-17
5.710139193e-17
5.710181448e-17
5.710297837e-17
5.710570595e-17
5.711043131e-17
5.711139699e-17
5.711181689e-17
5.711225495e-17
5.711271184e-17
5.711318818e-17
5.711368471e-17
5.71142023e-17
5.711474188e-17
5.711530442e-17
5.711589096e-17
5.711650255e-17
5.711714031e-17
5.711780538e-17
5.711849899e-17
5.71192224e-17
5.711997694e-17
5.712076399e-17
5.712158503e-17
5.712244156e-17
5.712333519e-17
5.712426758e-17
5.712524048e-17
5.712625573e-17
5.712731525e-17
5.712842103e-17
5.712957519e-17
5.713077993e-17
5.713203757e-17
5.713335052e-17
5.713472132e-17
5.713615262e-17
5.713764723e-17
5.713920805e-17
5.714083817e-17
5.714254077e-17
5.714431925e-17
5.714617714e-17
5.714811814e-17
5.715014615e-17
5.715226526e-17
5.715447975e-17
5.715679412e-17
5.715921311e-17
5.716174167e-17
5.716438503e-17
5.716714865e-17
5.71700383e-17
5.717306003e-17
5.71762202e-17
5.71795255e-17
5.718298296e-17
5.718659998e-17
5.719038435e-17
5.719434426e-17
5.719848835e-17
5.720282571e-17
5.72073659e-17
5.721211902e-17
5.72170957e-17
5.722230715e-17
5.72277652e-17
5.723348234e-17
5.723947173e-17
5.72457473e-17
5.725232373e-17
5.725921656e-17
5.726644221e-17
5.727401804e-17
5.728196245e-17
5.729029487e-17
5.729903593e-17
5.730820744e-17
5.731783257e-17
5.732793586e-17
5.733854336e-17
5.734968273e-17
5.736138334e-17
5.737367641e-17
5.738659514e-17
5.740017483e-17
5.741445305e-17
5.742946983e-17
5.744526778e-17
5.746189234e-17
5.747939194e-17
5.749781827e-17
5.751722649e-17
5.753767548e-17
5.755922816e-17
5.758195174e-17
5.760591808e-17
5.763120404e-17
5.765789182e-17
5.768606938e-17
5.771583089e-17
5.774727715e-17
5.778051611e-17
5.781566343e-17
5.785284296e-17
5.789218745e-17
5.793383913e-17
5.797795043e-17
5.802468471e-17
5.807421705e-17
5.812673508e-17
5.818243991e-17
5.824154702e-17
5.83042873e-17
5.837090811e-17
5.84416744e-17
5.851686994e-17
5.859679851e-17
5.868178531e-17
5.87721783e-17
5.886834971e-17
5.897069757e-17
5.907964734e-17
5.919565363e-17
5.931920193e-17
5.945081054e-17
5.959103245e-17
5.97404574e-17
5.989971392e-17
6.006947158e-17
6.025044317e-17
6.044338709e-17
6.064910968e-17
6.086846776e-17
6.11023711e-17
6.135178507e-17
6.161773324e-17
6.190130014e-17
6.220363399e-17
6.252594946e-17
6.286953055e-17
6.323573339e-17
6.36259891e-17
6.40418067e-17
6.448477589e-17
6.495656995e-17
6.545894852e-17
6.599376034e-17
6.656294602e-17
6.716854056e-17
6.781267601e-17
6.849758384e-17
6.922559725e-17
6.999915338e-17
7.082079535e-17
7.169317404e-17
7.261904983e-17
7.360129399e-17
7.464288993e-17
7.574693415e-17
7.691663697e-17
7.815532291e-17
7.946643086e-17
8.08535138e-17
8.232023834e-17
8.387038374e-17
8.550784068e-17
8.72366096e-17
8.906079862e-17
9.098462108e-17
9.301239264e-17
9.514852794e-17
9.739753685e-17
9.976402021e-17
1.022526652e-16
1.048682402e-16
1.07615589e-16
1.104996254e-16
1.135253257e-16
1.166977229e-16
1.200218982e-16
1.235029742e-16
1.271461062e-16
1.309564736e-16
1.34939271e-16
1.390996991e-16
1.434429546e-16
1.479742208e-16
1.526986569e-16
1.57621388e-16
1.627474938e-16
1.680819986e-16
1.736298596e-16
1.793959562e-16
1.85385079e-16
1.916019182e-16
1.98051053e-16
2.047369404e-16
2.116639041e-16
2.188361242e-16
2.262576264e-16
2.339322717e-16
2.418637468e-16
2.500555541e-16
2.58511003e-16
2.672332007e-16
2.762250444e-16
2.854892131e-16
2.950281611e-16
3.04844111e-16
3.14939048e-16
3.25314715e-16
3.359726077e-16
3.469139712e-16
3.581397973e-16
3.69650822e-16
3.814475246e-16
3.935301273e-16
4.058985956e-16
4.185526398e-16
4.314917174e-16
4.447150362e-16
4.582215587e-16
4.720100071e-16
4.860788697e-16
5.004264076e-16
5.15050663e-16
5.299494683e-16
5.451204557e-16
5.605610688e-16
5.76268574e-16
5.922400737e-16
6.084725202e-16
6.249627307e-16
6.417074029e-16
6.587031322e-16
6.759464296e-16
6.934337403e-16
7.111614641e-16
7.291259761e-16
7.47323649e-16
7.657508761e-16
7.844040956e-16
8.032798162e-16
8.223746437e-16
8.416853086e-16
8.612086957e-16
8.809418746e-16
9.00882131e-16
9.210270009e-16
9.413743047e-16
9.619221845e-16
9.826691414e-16
1.003614076e-15
1.024756331e-15
1.046095733e-15
1.06763264e-15
1.089367988e-15
1.111303344e-15
1.133440954e-15
1.155783804e-15
1.178335673e-15
1.201101194e-15
1.22408592e-15
1.247296388e-15
1.27074019e-15
1.294426044e-15
1.318363869e-15
1.342564872e-15
1.367041622e-15
1.391808155e-15
1.416880051e-15
1.442274519e-15
1.468010508e-15
1.494108811e-15
1.520592171e-15
1.547485394e-15
1.574815465e-15
1.602611665e-15
1.630905695e-15
1.659731801e-15
1.689126906e-15
1.719130739e-15
1.749785977e-15
1.781138377e-15
1.81323693e-15
1.846134005e-15
1.879885512e-15
1.914551046e-15
1.950194067e-15
1.986882056e-15
2.024686663e-15
2.063683888e-15
2.103954255e-15
2.145582981e-15
2.188660158e-15
2.233280927e-15
2.279545664e-15
2.327560156e-15
2.377435792e-15
2.429289749e-15
2.483245182e-15
2.539431413e-15
2.59798413e-15
2.659045581e-15
2.722764776e-15
2.789297689e-15
2.858807467e-15
2.931464644e-15
3.007447354e-15
3.08694156e-15
3.170141285e-15
3.257248847e-15
3.348475117e-15
3.44403977e-15
3.544171568e-15
3.649108643e-15
3.759098806e-15
3.874399869e-15
3.995279993e-15
4.122018059e-15
4.254904066e-15
4.394239557e-15
4.540338083e-15
4.693525705e-15
4.854141529e-15
5.022538295e-15
5.199083012e-15
5.384157649e-15
5.578159882e-15
5.781503908e-15
5.994621325e-15
6.217962092e-15
6.451995568e-15
6.697211634e-15
6.954121917e-15
7.22326111e-15
7.505188404e-15
7.800489034e-15
8.109775962e-15
8.433691691e-15
8.772910242e-15
9.128139296e-15
9.500122535e-15
9.889642207e-15
1.029752195e-14
1.072462992e-14
1.117188234e-14
1.164024745e-14
1.213075016e-14
1.264447743e-14
1.318258471e-14
1.374630383e-14
1.433695273e-14
1.495594789e-14
1.560482032e-14
1.628523656e-14
1.699902668e-14
1.774822202e-14
1.85351065e-14
1.936228719e-14
2.023279159e-14
2.11502027e-14
2.21188472e-14
2.314405816e-14
2.423254303e-14
2.53928994e-14
2.663633937e-14
2.797770729e-14
2.943691116e-14
3.104093667e-14
3.282668219e-14
3.48449507e-14
3.716607201e-14
3.988782243e-14
4.31465823e-14
4.713305657e-14
5.211442626e-14
5.846556265e-14
6.671301369e-14
7.759698901e-14
9.215870834e-14
1.118634889e-13
1.387741895e-13
1.757956e-13
2.270187757e-13
2.982061495e-13
3.974749145e-13
5.362595984e-13
7.306677124e-13
1.003388687e-12
1.386381421e-12
1.924657234e-12
2.681603412e-12
3.746472703e-12
5.244916738e-12
7.353795288e-12
1.032198875e-11
1.449963427e-11
2.037917399e-11
2.865295496e-11
4.029400298e-11
5.666921187e-11
7.9697829e-11
1.120731623e-10
1.575724135e-10
2.214891765e-10
3.112363948e-10
4.371857734e-10
6.138345179e-10
8.614241832e-10
1.208182405e-09
1.693420392e-09
2.37180244e-09
3.319215055e-09
4.640810823e-09
6.481996305e-09
9.043386461e-09
1.260107513e-08
1.753398899e-08
2.436061955e-08
3.378808364e-08
4.677726569e-08
6.462875991e-08
8.909546509e-08
1.225289864e-07
1.680684472e-07
2.298818684e-07
3.134718657e-07
4.260589448e-07
5.770570219e-07
7.786567922e-07
1.046533061e-06
1.400691946e-06
1.866472817e-06
2.475717798e-06
3.268118529e-06
4.29274556e-06
5.609760031e-06
7.292299891e-06
9.428523181e-06
1.212377756e-05
1.550284639e-05
1.971219392e-05
2.492208968e-05
3.132843268e-05
3.915398924e-05
4.864863286e-05
6.008794931e-05
7.376928982e-05
9.000396441e-05
0.000109103761
0.0001313591039
0.0001569784964
0.0001861417592
0.0002186065764
0.0002543714081
0.0002924373221
0.0003309073653
0.00036427902
0.0003877239978
0.0003925803233
0.0003690243492
0.0003120796861
0.0002308007788
0.0001492636296
8.752286971e-05
4.889057698e-05
2.689113277e-05
1.480294869e-05
8.078999226e-06
4.519547082e-06
2.566751539e-06
1.479913328e-06
8.535520221e-07
4.995264888e-07
2.929318157e-07
1.715462636e-07
1.00228926e-07
5.84467663e-08
3.404726028e-08
1.985548912e-08
1.162377885e-08
6.851548753e-09
4.074726594e-09
2.439582348e-09
1.478029135e-09
8.996641281e-10
5.537418203e-10
3.432602997e-10
2.141591111e-10
1.344276992e-10
8.492600779e-11
5.374607989e-11
3.390467881e-11
2.143814099e-11
1.358398407e-11
8.621959213e-12
5.480263778e-12
3.487872732e-12
2.222117512e-12
1.4163386e-12
9.024781054e-13
5.811796315e-13
3.746693006e-13
2.40182763e-13
1.541376295e-13
9.898133523e-14
6.35728249e-14
4.082097606e-14
2.619624112e-14
1.680340192e-14
1.076502144e-14
6.888854155e-15
4.40287908e-15
2.810165792e-15
1.790944271e-15
1.139558876e-15
7.238433904e-16
4.589361961e-16
2.90404942e-16
1.833752074e-16
1.155311758e-16
7.261262689e-17
4.552044136e-17
2.845789199e-17
1.773838182e-17
1.10215957e-17
6.824767584e-18
4.210419991e-18
2.587161256e-18
1.582816496e-18
9.63769962e-19
5.83783969e-19
3.515881994e-19
2.10400165e-19
1.250148837e-19
7.368655064e-20
4.303723157e-20
2.487311906e-20
1.419982447e-20
7.989278831e-21
4.416386642e-21
2.388339712e-21
1.255634321e-21
6.354818597e-22
3.044592138e-22
1.336251301e-22
4.955504689e-23
1.110982857e-23
0
0
0
0
0
0
0
0
0
2.413526009e-25
3.833348514e-25
4.244409872e-25
4.080828747e-25
3.629939073e-25
3.070640829e-25
2.50656009e-25
1.991777863e-25
1.54945851e-25
1.18464336e-25
8.926367096e-26
6.642503713e-26
4.889130504e-26
3.563947279e-26
2.575117275e-26
1.845511274e-26
1.312735199e-26
9.273602552e-27
6.509947817e-27
4.543442886e-27
3.154022341e-27
2.17860348e-27
1.497739113e-27
1.024789371e-27
6.973522305e-28
4.718132206e-28
3.17686415e-28
2.130461593e-28
1.423580925e-28
9.48125017e-29
6.295489405e-29
4.168211021e-29
2.752184009e-29
1.812354105e-29
1.190307532e-29
7.796926846e-30
5.09354316e-30
3.318335256e-30
2.15567576e-30
1.396227244e-30
9.015119317e-31
5.801603291e-31
3.72038238e-31
2.376691542e-31
1.512044274e-31
9.576330536e-32
6.035170461e-32
3.782993341e-32
2.357561652e-32
1.460633927e-32
9.005513436e-33
5.527903016e-33
3.374368824e-33
2.045596402e-33
1.229521417e-33
7.312249394e-34
4.291336003e-34
2.475945279e-34
1.396795346e-34
7.639772976e-35
3.993067305e-35
1.939509011e-35
8.194061432e-36
2.365842157e-36
0
0
0
0
0
0
0
0
0
0
0
0
0
0
0
0
0
0
0
0
0
0
0
0
4.508122779e-41
1.128202901e-40
1.329497604e-40
1.334026792e-40
1.136650359e-40
9.360205049e-41
7.444216652e-41
5.83694484e-41
4.618653038e-41
3.461875565e-41
2.61190173e-41
2.020211975e-41
1.456794209e-41
1.046090704e-41
7.484075581e-42
5.433393536e-42
4.042464122e-42
3.156009741e-42
2.682805391e-42
2.623512314e-42
2.304655241e-42
1.633422838e-42
1.229337259e-42
1.05397681e-42
1.100147354e-42
9.277008683e-43
6.189292018e-43
4.338402049e-43
3.277131081e-43
2.824533745e-43
1.954181951e-43
1.445427764e-43
1.124228491e-43
8.117594598e-44
6.812310429e-44
7.140390149e-44
5.928937238e-44
6.163139076e-44
5.327336758e-44
5.196409953e-44
6.61099914e-44
7.115144971e-44
6.394315857e-44
5.169241812e-44
4.397071705e-44
4.215742262e-44
2.888667309e-44
2.271062302e-44
1.600946374e-44
1.269165037e-44
1.232420921e-44
7.968931779e-45
5.148728687e-45
3.528655162e-45
2.728752101e-45
2.582017366e-45
1.778922952e-45
1.380075637e-45
1.350147891e-45
1.707785305e-45
1.150445549e-45
8.85693329e-46
8.652418169e-46
1.117044592e-45
1.52299179e-45
2.024701292e-45
2.128477556e-45
2.027855791e-45
1.440155947e-45
9.274260717e-46
6.254154989e-46
4.589510913e-46
3.018059977e-46
2.137222826e-46
1.773576103e-46
1.788299753e-46
1.922549919e-46
1.303359603e-46
9.577705849e-47
8.508927711e-47
5.234075769e-47
3.115008113e-47
1.753488839e-47
9.270136789e-48
5.506805687e-48
4.317064241e-48
5.269188783e-48
8.685355908e-48
1.515439528e-47
1.760048074e-47
2.479700261e-47
2.097161419e-47
1.489527084e-47
1.189887168e-47
1.17363973e-47
1.316576191e-47
1.169761514e-47
9.524927348e-48
9.370635808e-48
7.386641647e-48
5.347911064e-48
4.384575815e-48
4.393577386e-48
3.138588008e-48
2.531887739e-48
2.319917643e-48
1.824368641e-48
1.183973296e-48
7.765061295e-49
5.267340232e-49
4.006194073e-49
3.71263522e-49
4.43250373e-49
5.158603321e-49
4.050152976e-49
3.896283981e-49
3.364033398e-49
2.584849963e-49
2.437430395e-49
1.592931338e-49
1.233040653e-49
1.319032402e-49
1.888988665e-49
1.307042332e-49
1.090228699e-49
8.581933246e-50
8.58390934e-50
8.178507964e-50
5.64336777e-50
4.490197762e-50
4.339646328e-50
3.008388373e-50
2.211034513e-50
1.768010956e-50
1.601627424e-50
1.268805781e-50
1.108945536e-50
1.125914877e-50
1.293905554e-50
1.596530528e-50
1.373302009e-50
1.279960024e-50
1.332819706e-50
1.593051623e-50
1.08976684e-50
7.606197118e-51
5.612045612e-51
4.703659697e-51
3.188870006e-51
2.385999331e-51
2.178656497e-51
1.794475472e-51
1.910739537e-51
1.64354636e-51
1.089132446e-51
7.996391412e-52
5.971088599e-52
5.366645709e-52
6.055415092e-52
7.590504377e-52
7.829943451e-52
1.00828336e-51
8.077269942e-52
7.87311569e-52
6.41867161e-52
5.973025496e-52
4.799842242e-52
3.523316229e-52
3.02086092e-52
1.910778819e-52
1.200311001e-52
7.632912435e-53
5.340179035e-53
4.290590744e-53
4.029769966e-53
4.765605264e-53
3.674643707e-53
2.768500888e-53
2.283516208e-53
1.943647873e-53
1.703412549e-53
1.640470044e-53
1.862791239e-53
2.567208454e-53
2.90854766e-53
2.050593745e-53
1.434543626e-53
1.123699845e-53
8.8229092e-54
6.345975568e-54
5.034197063e-54
4.801828137e-54
5.841012217e-54
3.919500064e-54
2.876770805e-54
2.549841366e-54
2.96016264e-54
4.344768578e-54
3.189034209e-54
2.91440589e-54
2.551494008e-54
1.76819807e-54
1.310772103e-54
1.139757892e-54
9.280189561e-55
8.530140357e-55
9.235482029e-55
1.148413363e-54
1.215831162e-54
9.077112332e-55
7.682907008e-55
6.101509651e-55
5.622315756e-55
4.578286947e-55
3.764886877e-55
3.691495079e-55
3.989080161e-55
4.075158283e-55
3.617537628e-55
2.46272616e-55
1.744387216e-55
1.318267206e-55
1.083994839e-55
1.06372576e-55
8.617009837e-56
6.39351286e-56
4.910435938e-56
3.305720998e-56
2.252691807e-56
1.569472886e-56
1.175284359e-56
9.749229434e-57
9.173051188e-57
9.703749136e-57
1.172411882e-56
1.670948071e-56
1.921736244e-56
1.552878639e-56
1.589284897e-56
1.151331995e-56
9.750875116e-57
1.026099758e-56
1.351465961e-56
1.083163805e-56
1.063266987e-56
9.941653757e-57
7.139562447e-57
5.831909676e-57
4.955810224e-57
5.096871072e-57
4.130123057e-57
3.345863669e-57
3.259239025e-57
3.073023827e-57
2.467409806e-57
1.740957678e-57
1.394023092e-57
1.390259217e-57
1.356815874e-57
1.201981702e-57
1.074854742e-57
9.342291437e-58
6.909678945e-58
6.010491413e-58
5.025733799e-58
5.141052297e-58
4.761909372e-58
4.531535495e-58
4.018676013e-58
3.437372108e-58
2.576893784e-58
2.209592831e-58
2.07838375e-58
1.694169488e-58
1.577086851e-58
1.365448278e-58
1.147628785e-58
9.696469819e-59
7.967266587e-59
7.976911316e-59
8.239888846e-59
7.677551311e-59
7.816538982e-59
7.165504235e-59
7.079504381e-59
6.83965555e-59
6.907438741e-59
6.539265728e-59
6.01776014e-59
5.737198676e-59
5.519668497e-59
5.528287522e-59
5.145829787e-59
4.880146505e-59
4.781874743e-59
4.616278002e-59
4.532908374e-59
4.282232171e-59
3.943448858e-59
3.729508326e-59
3.531374772e-59
3.276558928e-59
3.136010115e-59
2.966667461e-59
2.825556713e-59
2.671544e-59
2.526714215e-59
2.404273924e-59
2.281586819e-59
2.186306141e-59
2.108043355e-59
2.011885971e-59
1.910155605e-59
1.813457413e-59
1.740125114e-59
1.664213426e-59
1.579802906e-59
1.505030744e-59
1.430229558e-59
1.353699236e-59
1.283068715e-59
1.216901586e-59
1.152977457e-59
1.095045049e-59
1.041479586e-59
9.929775635e-60
9.464127623e-60
8.993788108e-60
8.541737464e-60
8.113648377e-60
7.721247184e-60
7.338796465e-60
6.972857154e-60
6.621593655e-60
6.315208886e-60
5.991400446e-60
5.690780329e-60
5.409656631e-60
5.147550263e-60
4.902251434e-60
4.660869396e-60
4.43627316e-60
4.211804948e-60
4.015950893e-60
3.81580967e-60
3.632274022e-60
3.455635345e-60
3.280956976e-60
3.107172687e-60
2.947145627e-60
2.809467479e-60
2.6712393e-60
2.539243467e-60
2.40423695e-60
2.284642901e-60
2.168383899e-60
2.05037843e-60
1.943118001e-60
1.841809379e-60
1.118699852e-60
5.686423203e-61
2.668574081e-61
1.473158941e-61
7.511573576e-62
3.860627935e-62
1.798560837e-62
8.277572717e-63
3.707570526e-63
2.379043153e-63
8.615459555e-64
4.428719603e-64
3.272903428e-64
2.375965243e-64
8.307939745e-65
2.371574212e-65
7.97934086e-66
2.19837509e-65
5.867265485e-66
3.310515996e-66
3.391600611e-66
7.957866344e-68
5.560892681e-67
6.44764171e-68
2.037013636e-68
0
4.165355962e-71
2.604058848e-69
6.850601808e-69
1.395383136e-69
1.005891259e-69
6.315408381e-69
1.605558639e-70
7.029676494e-72
0
2.884998376e-70
4.063138357e-70
9.585996163e-72
4.066937554e-72
0
2.340049392e-71
1.520290185e-71
1.374949496e-72
4.272556038e-71
1.809240659e-72
1.936911128e-71
0
2.478127203e-72
9.162527849e-72
1.379558275e-72
5.377719172e-72
1.98915526e-72
3.587352128e-74
3.035571883e-73
1.006845101e-72
8.778489807e-74
3.137054722e-74
0
6.603836945e-74
5.611926458e-74
6.942012949e-75
1.090238452e-74
5.290900376e-75
2.15010114e-76
1.355354458e-75
7.322514094e-76
1.32538522e-77
1.394616035e-77
9.799119505e-77
1.406603671e-76
1.135036598e-76
0
1.094838801e-76
6.857375272e-77
1.81873675e-77
2.20114457e-77
1.892309835e-77
2.312870506e-77
1.094461381e-77
2.03966604e-78
6.794582679e-79
3.341281292e-78
2.567637103e-78
5.272440817e-79
1.48930546e-79
0
2.356655989e-79
3.494510237e-80
4.89621582e-80
4.376835225e-81
4.77618446e-81
7.762628489e-81
6.53070137e-82
1.041605912e-81
1.723673262e-81
7.501732242e-84
1.611609559e-82
0
6.16656529e-86
2.874375737e-84
0
2.008600424e-83
1.332627414e-83
3.334012416e-84
5.108576596e-85
1.050895289e-86
4.720088187e-86
3.944654377e-85
7.174529341e-85
2.244020107e-84
2.158607294e-86
2.547600933e-85
8.397699479e-86
1.532322274e-84
5.731297147e-86
6.098436261e-87
8.428939553e-85
8.337531877e-86
3.697680091e-85
2.97540414e-85
8.936146569e-86
0
1.138574875e-85
1.309457216e-85
2.757015468e-85
2.578413168e-85
0
0
0
2.493719499e-85
4.098267204e-85
1.062004793e-84
8.326653275e-85
6.074205174e-85
4.701614822e-85
1.423956384e-84
0
8.793381835e-86
0
1.613020629e-84
1.523748374e-84
2.425439727e-86
0
1.007961116e-84
4.63484235e-86
5.712429398e-86
7.995708803e-85
9.49782947e-85
4.659343613e-86
1.096336379e-84
0
3.931786886e-85
5.898348017e-86
0
5.570939007e-85
1.176341326e-84
0
5.752922693e-87
2.818367226e-84
0
7.684343737e-85
0
0
9.563644403e-87
2.70833423e-84
2.833304495e-86
3.770924419e-84
6.811708203e-86
2.618783908e-86
3.785639191e-85
1.048927276e-84
2.177005248e-84
5.621348057e-85
2.563866969e-85
0
0
7.901248958e-85
5.153913967e-85
1.840435865e-86
1.993514178e-85
0
2.038357565e-86
6.638011446e-85
1.096160437e-86
7.227504283e-87
3.161801708e-85
1.335994241e-87
2.050693259e-84
8.509961542e-85
5.85620156e-85
1.022549773e-85
1.631993406e-85
1.779411591e-87
0
0
0
0
2.228501596e-84
1.238935449e-86
1.394309777e-85
3.397597286e-85
2.925511184e-85
9.022356909e-85
3.855197322e-85
0
6.983661071e-85
0
6.27355889e-85
3.088285192e-85
1.21190547e-85
5.119113011e-86
2.805761814e-86
2.695432725e-85
2.787182344e-87
0
2.917386086e-87
8.391770797e-86
8.674961904e-87
8.364105121e-87
5.963439985e-88
5.44119729e-87
2.95518697e-86
0
6.877027904e-90
5.596673777e-87
0
0
2.393123183e-87
0
9.016485747e-85
4.217647646e-86
1.0544435e-87
9.401144987e-86
0
0
0
4.024616611e-85
3.701591729e-85
0
2.011586101e-87
0
1.201405433e-85
2.749396929e-84
3.956180607e-85
1.486615626e-84
8.434282151e-85
7.932737778e-87
0
0
0
)
;

boundaryField
{
    inlet
    {
        type            fixedValue;
        value           uniform 0;
    }
    outlet
    {
        type            zeroGradient;
    }
    wall
    {
        type            empty;
    }
}


// ************************************************************************* //
