/*--------------------------------*- C++ -*----------------------------------*\
  =========                 |
  \\      /  F ield         | OpenFOAM: The Open Source CFD Toolbox
   \\    /   O peration     | Website:  https://openfoam.org
    \\  /    A nd           | Version:  7
     \\/     M anipulation  |
\*---------------------------------------------------------------------------*/
FoamFile
{
    version     2.0;
    format      ascii;
    class       volScalarField;
    location    "0.000558243009";
    object      C7H14OOHO2_0;
}
// * * * * * * * * * * * * * * * * * * * * * * * * * * * * * * * * * * * * * //

dimensions      [0 0 0 0 0 0 0];

internalField   nonuniform List<scalar> 
1500
(
3.429319958e-20
1.329247415e-19
2.726917273e-19
4.056905608e-19
5.02091228e-19
5.591036111e-19
5.877256922e-19
6.002259462e-19
6.050574434e-19
6.06732549e-19
6.072593748e-19
6.074111064e-19
6.074514494e-19
6.074614202e-19
6.074637243e-19
6.074642247e-19
6.074643273e-19
6.074643471e-19
6.074643508e-19
6.074643514e-19
6.074643515e-19
6.074643515e-19
6.074643515e-19
6.074643515e-19
6.074643515e-19
6.074643515e-19
6.074643515e-19
6.074643515e-19
6.074643515e-19
6.074643515e-19
6.074643515e-19
6.074643515e-19
6.074643515e-19
6.074643515e-19
6.074643515e-19
6.074643515e-19
6.074643515e-19
6.074643515e-19
6.074643515e-19
6.074643515e-19
6.074643515e-19
6.074643515e-19
6.074643515e-19
6.074643515e-19
6.074643515e-19
6.074643515e-19
6.074643515e-19
6.074643514e-19
6.074643514e-19
6.074643514e-19
6.074643514e-19
6.074643514e-19
6.074643514e-19
6.074643514e-19
6.074643514e-19
6.074643514e-19
6.074643514e-19
6.074643514e-19
6.074643514e-19
6.074643514e-19
6.074643514e-19
6.074643514e-19
6.074643514e-19
6.074643514e-19
6.074643514e-19
6.074643514e-19
6.074643514e-19
6.074643514e-19
6.074643514e-19
6.074643514e-19
6.074643514e-19
6.074643514e-19
6.074643514e-19
6.074643514e-19
6.074643514e-19
6.074643514e-19
6.074643515e-19
6.074643515e-19
6.074643515e-19
6.074643515e-19
6.074643515e-19
6.074643515e-19
6.074643515e-19
6.074643515e-19
6.074643515e-19
6.074643515e-19
6.074643515e-19
6.074643515e-19
6.074643515e-19
6.074643515e-19
6.074643515e-19
6.074643515e-19
6.074643515e-19
6.074643515e-19
6.074643515e-19
6.074643515e-19
6.074643514e-19
6.074643514e-19
6.074643514e-19
6.074643514e-19
6.074643514e-19
6.074643514e-19
6.074643514e-19
6.074643514e-19
6.074643514e-19
6.074643514e-19
6.074643514e-19
6.074643514e-19
6.074643514e-19
6.074643514e-19
6.074643514e-19
6.074643514e-19
6.074643514e-19
6.074643514e-19
6.074643514e-19
6.074643514e-19
6.074643514e-19
6.074643514e-19
6.074643514e-19
6.074643514e-19
6.074643514e-19
6.074643514e-19
6.074643514e-19
6.074643514e-19
6.074643514e-19
6.074643514e-19
6.074643514e-19
6.074643514e-19
6.074643514e-19
6.074643514e-19
6.074643514e-19
6.074643514e-19
6.074643514e-19
6.074643514e-19
6.074643514e-19
6.074643514e-19
6.074643514e-19
6.074643514e-19
6.074643514e-19
6.074643514e-19
6.074643514e-19
6.074643514e-19
6.074643514e-19
6.074643514e-19
6.074643514e-19
6.074643514e-19
6.074643514e-19
6.074643514e-19
6.074643514e-19
6.074643514e-19
6.074643514e-19
6.074643514e-19
6.074643514e-19
6.074643514e-19
6.074643514e-19
6.074643514e-19
6.074643514e-19
6.074643514e-19
6.074643514e-19
6.074643514e-19
6.074643514e-19
6.074643514e-19
6.074643514e-19
6.074643514e-19
6.074643514e-19
6.074643514e-19
6.074643514e-19
6.074643514e-19
6.074643515e-19
6.074643515e-19
6.074643515e-19
6.074643515e-19
6.074643515e-19
6.074643515e-19
6.074643515e-19
6.074643515e-19
6.074643515e-19
6.074643514e-19
6.074643514e-19
6.074643514e-19
6.074643514e-19
6.074643514e-19
6.074643514e-19
6.074643514e-19
6.074643514e-19
6.074643514e-19
6.074643514e-19
6.074643514e-19
6.074643514e-19
6.074643514e-19
6.074643514e-19
6.074643514e-19
6.074643514e-19
6.074643514e-19
6.074643514e-19
6.074643514e-19
6.074643514e-19
6.074643514e-19
6.074643514e-19
6.074643514e-19
6.074643514e-19
6.074643514e-19
6.074643514e-19
6.074643514e-19
6.074643514e-19
6.074643514e-19
6.074643514e-19
6.074643514e-19
6.074643514e-19
6.074643514e-19
6.074643514e-19
6.074643514e-19
6.074643515e-19
6.074643515e-19
6.074643515e-19
6.074643515e-19
6.074643515e-19
6.074643515e-19
6.074643515e-19
6.074643515e-19
6.074643515e-19
6.074643515e-19
6.074643515e-19
6.074643515e-19
6.074643515e-19
6.074643515e-19
6.074643515e-19
6.074643515e-19
6.074643515e-19
6.074643516e-19
6.074643516e-19
6.074643516e-19
6.074643517e-19
6.074643517e-19
6.074643518e-19
6.074643518e-19
6.074643519e-19
6.07464352e-19
6.074643521e-19
6.074643524e-19
6.074643528e-19
6.074643544e-19
6.074643614e-19
6.074643957e-19
6.074645551e-19
6.074652313e-19
6.074677829e-19
6.074761221e-19
6.074985721e-19
6.075416364e-19
6.075495484e-19
6.075532972e-19
6.075572179e-19
6.07561317e-19
6.075656006e-19
6.075700766e-19
6.075747535e-19
6.075796408e-19
6.075847483e-19
6.07590086e-19
6.075956647e-19
6.076014953e-19
6.076075896e-19
6.076139596e-19
6.076206181e-19
6.076275785e-19
6.076348548e-19
6.076424616e-19
6.076504142e-19
6.076587288e-19
6.076674222e-19
6.076765121e-19
6.076860169e-19
6.076959562e-19
6.077063501e-19
6.077172201e-19
6.077285884e-19
6.077404785e-19
6.077529149e-19
6.077659234e-19
6.07779531e-19
6.077937659e-19
6.078086579e-19
6.078242381e-19
6.078405393e-19
6.078575955e-19
6.078754429e-19
6.078941191e-19
6.079136638e-19
6.079341184e-19
6.079555267e-19
6.079779343e-19
6.080013895e-19
6.080259425e-19
6.080516465e-19
6.080785571e-19
6.081067328e-19
6.081362349e-19
6.081671282e-19
6.081994802e-19
6.082333624e-19
6.082688497e-19
6.083060208e-19
6.083449586e-19
6.083857501e-19
6.08428487e-19
6.084732656e-19
6.085201875e-19
6.085693594e-19
6.086208936e-19
6.086749086e-19
6.087315289e-19
6.087908859e-19
6.08853118e-19
6.08918371e-19
6.089867987e-19
6.090585633e-19
6.091338358e-19
6.092127969e-19
6.092956373e-19
6.093825582e-19
6.094737723e-19
6.095695044e-19
6.096699922e-19
6.097754871e-19
6.098862551e-19
6.100025779e-19
6.101247537e-19
6.102530986e-19
6.103879478e-19
6.105296567e-19
6.106786025e-19
6.108351859e-19
6.109998323e-19
6.111729943e-19
6.11355153e-19
6.115468204e-19
6.117485419e-19
6.119608984e-19
6.121845092e-19
6.124200349e-19
6.126681808e-19
6.129296997e-19
6.132053964e-19
6.13496131e-19
6.138028238e-19
6.141264598e-19
6.144680935e-19
6.14828855e-19
6.152099555e-19
6.15612694e-19
6.16038464e-19
6.164887613e-19
6.169651918e-19
6.174694803e-19
6.180034801e-19
6.185691827e-19
6.191687291e-19
6.198044211e-19
6.204787339e-19
6.211943296e-19
6.219540713e-19
6.22761039e-19
6.236185451e-19
6.245301527e-19
6.254996938e-19
6.265312893e-19
6.276293699e-19
6.287986983e-19
6.300443936e-19
6.313719554e-19
6.327872908e-19
6.342967424e-19
6.359071174e-19
6.376257184e-19
6.394603763e-19
6.414194838e-19
6.435120308e-19
6.45747642e-19
6.481366148e-19
6.506899596e-19
6.534194415e-19
6.563376229e-19
6.59457908e-19
6.627945881e-19
6.663628889e-19
6.701790182e-19
6.742602145e-19
6.786247973e-19
6.832922174e-19
6.882831079e-19
6.936193356e-19
6.99324053e-19
7.054217496e-19
7.11938303e-19
7.189010302e-19
7.263387373e-19
7.342817684e-19
7.427620531e-19
7.518131524e-19
7.614703025e-19
7.717704557e-19
7.827523198e-19
7.944563929e-19
8.069249955e-19
8.202022989e-19
8.343343485e-19
8.493690834e-19
8.6535635e-19
8.823479109e-19
9.003974472e-19
9.195605554e-19
9.398947371e-19
9.61459382e-19
9.843157433e-19
1.008526906e-18
1.034157748e-18
1.06127489e-18
1.08994664e-18
1.120242932e-18
1.152235246e-18
1.185996532e-18
1.221601114e-18
1.259124592e-18
1.298643735e-18
1.340236361e-18
1.383981208e-18
1.429957806e-18
1.47824633e-18
1.528927446e-18
1.582082161e-18
1.637791648e-18
1.696137082e-18
1.757199457e-18
1.821059402e-18
1.887796994e-18
1.957491567e-18
2.030221508e-18
2.106064069e-18
2.185095155e-18
2.26738913e-18
2.353018608e-18
2.442054257e-18
2.534564597e-18
2.630615802e-18
2.730271505e-18
2.833592613e-18
2.940637117e-18
3.051459922e-18
3.16611267e-18
3.28464358e-18
3.407097298e-18
3.53351475e-18
3.663933014e-18
3.798385195e-18
3.936900321e-18
4.079503242e-18
4.226214554e-18
4.377050529e-18
4.53202306e-18
4.691139624e-18
4.85440326e-18
5.021812558e-18
5.193361675e-18
5.369040349e-18
5.548833949e-18
5.732723528e-18
5.920685894e-18
6.1126937e-18
6.308715553e-18
6.508716126e-18
6.712656299e-18
6.920493309e-18
7.132180915e-18
7.347669577e-18
7.566906652e-18
7.789836599e-18
8.016401203e-18
8.246539806e-18
8.48018956e-18
8.71728568e-18
8.957761718e-18
9.201549849e-18
9.448581165e-18
9.698785984e-18
9.952094169e-18
1.020843546e-17
1.046773982e-17
1.072993779e-17
1.099496086e-17
1.126274186e-17
1.153321534e-17
1.180631802e-17
1.208198917e-17
1.23601711e-17
1.264080963e-17
1.292385454e-17
1.320926012e-17
1.349698567e-17
1.37869961e-17
1.407926249e-17
1.437376271e-17
1.467048211e-17
1.496941415e-17
1.527056116e-17
1.557393511e-17
1.587955843e-17
1.618746484e-17
1.649770026e-17
1.681032383e-17
1.712540885e-17
1.744304393e-17
1.776333416e-17
1.808640222e-17
1.841239002e-17
1.874145971e-17
1.907379513e-17
1.940960346e-17
1.974911684e-17
2.009259406e-17
2.044032243e-17
2.079261958e-17
2.11498355e-17
2.15123546e-17
2.18805978e-17
2.225502482e-17
2.263613651e-17
2.302447722e-17
2.342063733e-17
2.382525587e-17
2.423902328e-17
2.466268424e-17
2.50970405e-17
2.554295408e-17
2.600135027e-17
2.647322052e-17
2.695962586e-17
2.746170015e-17
2.798065344e-17
2.851777534e-17
2.90744385e-17
2.965210204e-17
3.02523151e-17
3.08767204e-17
3.152705775e-17
3.220516767e-17
3.291299493e-17
3.365259219e-17
3.442612351e-17
3.523586797e-17
3.608422316e-17
3.69737088e-17
3.790697018e-17
3.888678175e-17
3.991605054e-17
4.099781972e-17
4.213527207e-17
4.333173353e-17
4.459067671e-17
4.591572454e-17
4.73106539e-17
4.877939947e-17
5.032605756e-17
5.195489028e-17
5.367032978e-17
5.547698286e-17
5.737963582e-17
5.938325969e-17
6.149301599e-17
6.371426289e-17
6.605256205e-17
6.851368609e-17
7.110362688e-17
7.382860467e-17
7.669507825e-17
7.970975618e-17
8.287960924e-17
8.621188431e-17
8.971411966e-17
9.339416187e-17
9.726018467e-17
1.013207095e-16
1.055846285e-16
1.100612294e-16
1.147602228e-16
1.196917729e-16
1.248665299e-16
1.30295666e-16
1.359909146e-16
1.419646125e-16
1.482297464e-16
1.548000023e-16
1.616898203e-16
1.689144527e-16
1.764900277e-16
1.84433619e-16
1.927633211e-16
2.014983328e-16
2.106590498e-16
2.202671693e-16
2.303458096e-16
2.409196515e-16
2.520151085e-16
2.636605378e-16
2.758865117e-16
2.887261748e-16
3.022157286e-16
3.163951033e-16
3.313089081e-16
3.470077941e-16
3.63550432e-16
3.810064055e-16
3.994604712e-16
4.19018855e-16
4.398185892e-16
4.620413858e-16
4.859342807e-16
5.118403813e-16
5.402446935e-16
5.718424485e-16
6.076410055e-16
6.491118456e-16
6.984172991e-16
7.587487508e-16
8.348311197e-16
9.336753159e-16
1.065700473e-15
1.246407504e-15
1.498874542e-15
1.857477402e-15
2.373435627e-15
3.123078567e-15
4.220163382e-15
5.834227564e-15
8.217926505e-15
1.174774547e-14
1.698461358e-14
2.47641234e-14
3.633077421e-14
5.353765179e-14
7.914332791e-14
1.172531258e-13
1.739746402e-13
2.583910313e-13
3.84005299e-13
5.708820568e-13
8.488213684e-13
1.2620582e-12
1.876214614e-12
2.788574366e-12
4.14325086e-12
6.153551396e-12
9.134906761e-12
1.355328361e-11
2.009623877e-11
2.977700879e-11
4.408667522e-11
6.521609535e-11
9.637875414e-11
1.422790961e-10
2.097897593e-10
3.089274985e-10
4.54254163e-10
6.668794077e-10
9.773103922e-10
1.429486206e-09
2.086458072e-09
3.038338698e-09
4.413354802e-09
6.393105959e-09
9.233470756e-09
1.32930172e-08
1.907127548e-08
2.725982041e-08
3.880978516e-08
5.50201756e-08
7.765215482e-08
1.090752891e-07
1.524525496e-07
2.119716013e-07
2.931305384e-07
4.030867003e-07
5.510774937e-07
7.48922236e-07
1.01161389e-06
1.358009091e-06
1.811623867e-06
2.401540443e-06
3.163426325e-06
4.140659138e-06
5.385531597e-06
6.960477603e-06
8.93918206e-06
1.140728556e-05
1.446209871e-05
1.82101947e-05
2.276074851e-05
2.82041491e-05
3.460944155e-05
4.189126026e-05
4.992819819e-05
5.815364827e-05
6.548640069e-05
6.980119253e-05
6.917483731e-05
6.186410428e-05
4.820528877e-05
3.179221187e-05
1.77025439e-05
8.694218545e-06
4.001898121e-06
1.810411334e-06
8.256360221e-07
3.843539277e-07
1.788635116e-07
8.65371115e-08
4.282938601e-08
2.169990971e-08
1.105744424e-08
5.801120449e-09
3.095496041e-09
1.677619659e-09
9.214957512e-10
5.128688486e-10
2.888848865e-10
1.645064717e-10
9.461174058e-11
5.491187386e-11
3.214199177e-11
1.888495143e-11
1.120082345e-11
6.646424791e-12
3.977284668e-12
2.38941892e-12
1.440417187e-12
8.712063643e-13
5.291167814e-13
3.208884959e-13
1.931695094e-13
1.162483274e-13
6.993110418e-14
4.203906685e-14
2.524794293e-14
1.514707506e-14
9.074308535e-15
5.424218461e-15
3.231550543e-15
1.947068181e-15
1.172040122e-15
6.983994944e-16
4.155480555e-16
2.467181218e-16
1.460496965e-16
8.6132815e-17
5.056462808e-17
2.954092351e-17
1.714636573e-17
9.881817363e-18
5.648392876e-18
3.197619123e-18
1.789633437e-18
9.878938876e-19
5.361184297e-19
2.847133418e-19
1.469329347e-19
7.285591164e-20
3.400559978e-20
1.430608035e-20
4.794313199e-21
5.484544613e-22
0
0
0
0
0
0
0
0
0
0
0
0
0
0
0
0
1.157300923e-24
1.557071965e-24
1.559016309e-24
1.38015163e-24
1.140169271e-24
9.002579276e-25
6.877096382e-25
5.122148465e-25
3.739354149e-25
2.685762722e-25
1.903123318e-25
1.333230739e-25
9.248859827e-26
6.361670612e-26
4.343080408e-26
2.945279082e-26
1.985401837e-26
1.331068228e-26
8.879010307e-27
5.89441336e-27
3.893318833e-27
2.555042138e-27
1.667906158e-27
1.083994058e-27
7.018844979e-28
4.530285179e-28
2.916219049e-28
1.872863989e-28
1.200019439e-28
7.671128362e-29
4.892180539e-29
3.112384636e-29
1.975145377e-29
1.250219165e-29
7.892746977e-30
4.969750448e-30
3.118557993e-30
1.950701085e-30
1.216071707e-30
7.554121129e-31
4.674037299e-31
2.880148313e-31
1.766002796e-31
1.077402105e-31
6.539509137e-32
3.951529918e-32
2.367673363e-32
1.409380857e-32
8.387388522e-33
4.976636979e-33
2.965504374e-33
1.746761126e-33
1.059902986e-33
6.107113074e-34
3.666207061e-34
2.547092697e-34
1.410138361e-34
8.261503095e-35
4.269141508e-35
2.406245475e-35
1.91039184e-35
1.351813586e-35
1.488800232e-35
1.450062187e-35
1.814628923e-35
1.435964103e-35
1.171516851e-35
7.515816302e-36
5.479344786e-36
5.06397167e-36
6.052618686e-36
4.241261299e-36
3.29727212e-36
2.256453528e-36
1.653788485e-36
1.410038667e-36
1.50227034e-36
1.162543508e-36
1.165949268e-36
8.2873881e-37
6.053351826e-37
5.841206464e-37
5.262037332e-37
3.701282598e-37
3.393397186e-37
2.24856905e-37
1.807524141e-37
1.904246893e-37
2.278970193e-37
2.674312012e-37
2.248797469e-37
1.455531791e-37
9.813490714e-38
7.097142133e-38
6.061192255e-38
4.883486155e-38
4.818751458e-38
5.762137904e-38
6.40122993e-38
4.199257884e-38
2.901031852e-38
2.200270378e-38
1.925475691e-38
2.040836157e-38
2.643927913e-38
2.485375598e-38
1.841937661e-38
1.083068941e-38
6.596063691e-39
4.763743918e-39
4.521117239e-39
3.147934676e-39
2.706823199e-39
1.754768474e-39
1.232827594e-39
8.93144179e-40
6.779392713e-40
5.577133655e-40
5.183606081e-40
4.548367726e-40
5.305953363e-40
7.504546882e-40
6.663666084e-40
6.910213398e-40
8.680770991e-40
7.580093057e-40
5.316068485e-40
3.466071652e-40
2.3922107e-40
1.84035889e-40
1.316736361e-40
1.021712153e-40
8.394501527e-41
7.357813661e-41
6.114976785e-41
4.736968047e-41
4.03715765e-41
4.097210688e-41
3.435576661e-41
3.460625967e-41
4.405993048e-41
2.769479922e-41
1.849484164e-41
1.508005854e-41
1.249707901e-41
1.435678425e-41
1.647493211e-41
1.555981687e-41
1.458458617e-41
9.973711273e-42
8.120306661e-42
5.987408638e-42
5.47896938e-42
5.974750868e-42
4.814210538e-42
4.972122493e-42
3.534680742e-42
2.460291707e-42
1.702989353e-42
1.406326618e-42
1.525182903e-42
9.536004872e-43
5.979000951e-43
3.768747351e-43
2.452854142e-43
1.791721847e-43
1.673060993e-43
2.11385685e-43
3.321768848e-43
4.399072254e-43
6.95025461e-43
6.63190963e-43
7.703098493e-43
6.856353858e-43
4.503201115e-43
3.318242477e-43
2.66489157e-43
1.719103863e-43
1.24047112e-43
1.138748994e-43
1.407332835e-43
1.364268025e-43
9.188613978e-44
7.1841064e-44
7.513671231e-44
4.41699657e-44
2.543610965e-44
1.446571273e-44
8.169760717e-45
5.293068356e-45
4.77628489e-45
6.856205245e-45
6.026617593e-45
7.149712957e-45
8.037932141e-45
1.141882811e-44
8.390991819e-45
5.246007222e-45
3.395622977e-45
2.64534729e-45
2.7344719e-45
2.102806771e-45
2.001657702e-45
1.690454945e-45
1.725829485e-45
1.408925959e-45
1.125451325e-45
1.14117611e-45
7.389485612e-46
5.410556315e-46
5.14568516e-46
3.429581922e-46
2.855871749e-46
3.33053747e-46
2.429282591e-46
2.414562423e-46
3.257886499e-46
4.484230677e-46
4.128304719e-46
3.115057523e-46
2.556833439e-46
1.907482137e-46
1.405857066e-46
1.280799607e-46
7.800706055e-47
4.776988422e-47
3.01358791e-47
2.114775463e-47
1.820776445e-47
2.07578897e-47
2.790844493e-47
4.239805791e-47
2.758154975e-47
1.918357176e-47
1.510970907e-47
1.357443156e-47
1.406272754e-47
1.164174054e-47
9.212338323e-48
7.195744893e-48
5.776974194e-48
5.039840255e-48
5.1067672e-48
6.200305061e-48
8.560350524e-48
6.322222542e-48
5.176967507e-48
5.018634109e-48
5.921805426e-48
3.985610283e-48
2.791969109e-48
2.152294331e-48
2.022219875e-48
1.238450077e-48
7.986791905e-49
5.79341532e-49
5.249419782e-49
6.332896958e-49
9.627117254e-49
8.405244782e-49
6.522721149e-49
4.546961195e-49
3.77126684e-49
4.054897967e-49
3.999551646e-49
3.884682429e-49
4.902891944e-49
3.818686227e-49
3.668101194e-49
3.017692606e-49
2.889779374e-49
2.20845302e-49
1.43530335e-49
9.290233457e-50
6.025881578e-50
3.992876059e-50
2.472067324e-50
1.706829296e-50
1.486538228e-50
1.739569024e-50
2.036939361e-50
2.010055517e-50
1.749176361e-50
1.83305906e-50
2.066916334e-50
1.531412525e-50
1.174588415e-50
9.859990997e-51
1.000724129e-50
1.285092507e-50
9.27779527e-51
6.421803228e-51
4.897565206e-51
3.341822957e-51
2.381413209e-51
1.894028785e-51
1.892722306e-51
2.603803717e-51
2.025085692e-51
1.85747584e-51
1.519983721e-51
1.603652806e-51
2.212800923e-51
2.116569887e-51
1.847221993e-51
2.011193634e-51
1.519157863e-51
1.081414218e-51
9.267479747e-52
7.094951642e-52
6.678432093e-52
6.849162604e-52
8.235022904e-52
6.509799731e-52
5.032580877e-52
4.772952522e-52
3.634278547e-52
3.326263704e-52
2.45243365e-52
1.754498222e-52
1.378400095e-52
1.241138137e-52
1.342579318e-52
9.988481746e-53
6.686777116e-53
4.625330432e-53
3.348659663e-53
2.469360004e-53
1.786071585e-53
1.344599645e-53
1.024331544e-53
7.740435123e-54
6.006284522e-54
5.056773466e-54
5.350832625e-54
7.744533101e-54
5.520011437e-54
3.504093606e-54
2.279178538e-54
1.546231402e-54
1.391278941e-54
2.004815498e-54
1.883037927e-54
2.643156791e-54
1.940974162e-54
1.737541213e-54
1.976820421e-54
2.802211264e-54
2.296003494e-54
2.373260306e-54
3.096844285e-54
2.266281967e-54
2.029212344e-54
1.739674084e-54
1.988109548e-54
1.474453023e-54
1.111546925e-54
1.05126515e-54
7.754700998e-55
7.258553985e-55
4.993115185e-55
4.0605579e-55
4.284446732e-55
4.954798938e-55
5.061510805e-55
4.666841918e-55
3.20741837e-55
2.518455943e-55
2.212858464e-55
1.78740002e-55
1.736883866e-55
1.658853061e-55
1.576454653e-55
1.246892433e-55
9.981915554e-56
6.825936296e-56
5.307119053e-56
5.10186617e-56
3.636618388e-56
2.843279583e-56
2.464425667e-56
2.154001891e-56
2.344705063e-56
1.597091054e-56
1.244219934e-56
1.264590354e-56
1.018154083e-56
1.055331309e-56
6.586306745e-57
4.431139955e-57
3.203733903e-57
2.836789368e-57
3.126822127e-57
2.341226622e-57
1.939839072e-57
2.073608963e-57
2.918337304e-57
2.017890362e-57
1.692541721e-57
1.902532987e-57
1.370404307e-57
1.181878981e-57
7.168908957e-58
4.454142032e-58
2.855633949e-58
1.846625219e-58
1.306826198e-58
1.355743438e-58
1.855070659e-58
2.719925328e-58
2.121706919e-58
1.723975142e-58
1.46403515e-58
1.420779278e-58
1.708680004e-58
2.510294956e-58
1.965877744e-58
2.010232883e-58
1.467763012e-58
1.261577685e-58
1.372350482e-58
1.122542526e-58
1.203309791e-58
1.078767992e-58
6.6360187e-59
4.095896761e-59
2.547283138e-59
1.612928689e-59
1.064768786e-59
7.659858718e-60
6.375265765e-60
6.341948936e-60
7.127225142e-60
8.989415982e-60
1.329341218e-59
8.374910825e-60
5.345264001e-60
3.899977799e-60
3.688073076e-60
4.699230987e-60
3.151061807e-60
2.332966552e-60
1.794299458e-60
1.581219308e-60
1.558851913e-60
2.022080721e-60
2.062070418e-60
1.507016492e-60
1.360916372e-60
1.601880437e-60
1.292200544e-60
1.28771839e-60
1.614588912e-60
1.12256087e-60
8.203880921e-61
6.293194371e-61
5.202398375e-61
5.034691392e-61
4.353825706e-61
3.58558359e-61
3.409068349e-61
2.510702262e-61
1.922628329e-61
1.49978371e-61
3.91979576e-62
1.117636694e-62
5.759117824e-63
1.239581741e-63
4.308588738e-65
3.403111834e-65
6.778613427e-66
2.302404784e-67
0
3.806234297e-68
1.018126325e-69
9.262788666e-70
2.060689364e-71
1.3694139e-70
2.11825201e-72
1.33886543e-72
1.030813922e-72
1.45244912e-72
4.583801132e-73
7.42795533e-73
2.070978561e-74
1.662171744e-75
6.926816763e-74
5.250394709e-75
1.974148327e-75
0
2.400060905e-75
2.225923147e-76
1.298120542e-75
4.58774666e-76
2.939184919e-76
4.911643767e-76
0
0
2.928165139e-78
3.705881487e-76
1.612636994e-77
3.498236283e-78
0
1.644429186e-78
0
1.482087872e-80
2.186753387e-78
7.904573917e-79
0
1.713053914e-78
0
7.083988102e-79
5.493127698e-79
8.656686063e-80
6.814028049e-79
1.084696292e-80
2.9840515e-80
1.664348054e-80
5.478601671e-80
4.677016699e-80
5.232058488e-80
1.339530403e-81
4.210263587e-83
0
0
3.201329223e-81
8.120918088e-83
4.581654928e-84
6.755917559e-84
0
0
8.982408863e-84
3.112483793e-83
1.378965039e-83
3.31118797e-83
1.278713965e-84
3.700001409e-84
0
0
1.859568757e-86
1.427834833e-84
4.667764968e-86
0
0
1.88481453e-85
1.939169204e-87
0
1.270319063e-85
1.736891657e-87
4.52887011e-86
5.441187193e-86
0
3.780841484e-87
3.30134875e-87
7.090515844e-89
1.368002397e-87
2.066638468e-89
2.869829553e-89
6.257091685e-89
1.524044046e-89
2.542338349e-89
2.601223794e-89
2.576869493e-90
1.966223398e-91
0
8.095323578e-93
1.034167865e-91
2.028411273e-91
2.931010407e-92
9.024668446e-94
0
1.729490662e-93
8.485318417e-92
2.087478055e-91
2.514701755e-93
1.16296265e-91
1.075671201e-92
4.543235799e-92
0
3.203061448e-93
1.312575457e-92
8.785304549e-94
1.084644494e-92
9.495322062e-92
8.346425575e-94
3.367586468e-92
3.216252128e-93
1.318959433e-93
4.216127528e-93
5.162636311e-92
9.378664045e-93
0
6.911693882e-92
2.589953308e-92
3.461398247e-92
1.015245478e-91
1.906894815e-91
7.24483718e-92
1.52979437e-91
3.824753802e-92
5.640866164e-94
0
1.124105124e-92
8.342617911e-92
7.431619874e-94
4.411214071e-94
8.451784987e-95
1.415156294e-93
1.383764951e-91
3.775379777e-93
9.681117499e-92
0
7.400605548e-94
1.613123455e-91
5.98536335e-92
1.535721895e-93
2.573911076e-91
1.529916638e-91
1.984748161e-91
4.774612663e-93
0
0
7.527949232e-93
2.76481395e-93
0
0
1.516911774e-93
1.391672448e-91
1.991635728e-91
2.39760071e-93
4.51346531e-91
8.845352817e-92
4.932964633e-91
4.117980491e-91
0
4.217633096e-91
3.531106458e-92
0
0
9.215625188e-93
0
3.861681473e-92
1.404453996e-93
1.847998199e-93
1.925149423e-93
9.906170847e-94
1.95944942e-91
7.455815968e-92
2.891861824e-92
2.830918992e-91
1.07845326e-91
0
3.946289393e-92
1.209179148e-92
2.012109839e-91
1.843767818e-93
0
0
0
0
0
8.454742346e-92
5.797712234e-94
6.975798457e-94
7.424351238e-92
5.209107987e-94
1.611951845e-92
7.034809435e-92
1.497069507e-91
5.859418015e-92
0
0
8.448319773e-92
5.725479545e-93
1.357445429e-91
4.991862277e-92
4.494387452e-92
0
2.800134983e-92
4.671564835e-92
4.263143818e-92
0
0
1.450747319e-93
0
1.149477784e-93
0
0
3.950925697e-94
1.063235297e-92
0
6.097821278e-92
2.20378097e-92
1.404006398e-91
0
4.24784898e-92
9.6049287e-94
0
0
6.515377966e-92
0
1.416406214e-91
8.850208409e-92
1.293894689e-91
1.506891078e-93
3.67865799e-91
1.196235581e-91
0
9.005201738e-92
6.477034006e-92
1.704121486e-91
1.341104346e-91
4.41739716e-93
7.874052607e-92
)
;

boundaryField
{
    inlet
    {
        type            fixedValue;
        value           uniform 0;
    }
    outlet
    {
        type            zeroGradient;
    }
    wall
    {
        type            empty;
    }
}


// ************************************************************************* //
