/*--------------------------------*- C++ -*----------------------------------*\
  =========                 |
  \\      /  F ield         | OpenFOAM: The Open Source CFD Toolbox
   \\    /   O peration     | Website:  https://openfoam.org
    \\  /    A nd           | Version:  7
     \\/     M anipulation  |
\*---------------------------------------------------------------------------*/
FoamFile
{
    version     2.0;
    format      ascii;
    class       volScalarField;
    location    "0.000558243009";
    object      C7H16_0;
}
// * * * * * * * * * * * * * * * * * * * * * * * * * * * * * * * * * * * * * //

dimensions      [0 0 0 0 0 0 0];

internalField   nonuniform List<scalar> 
1500
(
0.003478994465
0.01351153049
0.02775019906
0.04134934354
0.05125317869
0.05714180857
0.06011508849
0.0614214462
0.06192951797
0.06210679779
0.062162918
0.06217918907
0.06218354462
0.06218462849
0.06218488071
0.06218493588
0.06218494727
0.06218494949
0.06218494991
0.06218494998
0.06218495
0.06218495
0.06218495
0.06218495
0.06218495
0.06218495
0.06218495
0.06218495
0.06218495
0.06218495
0.06218495
0.06218495
0.06218495
0.06218495
0.06218495
0.06218495
0.06218495
0.06218495
0.06218495
0.06218495
0.06218495
0.06218495
0.06218495
0.06218495
0.06218495
0.06218495
0.06218495
0.06218495
0.06218495
0.06218495
0.06218495
0.06218495
0.06218495
0.06218495
0.06218495
0.06218495
0.06218495
0.06218495
0.06218495
0.06218495
0.06218495
0.06218495
0.06218495
0.06218495
0.06218495
0.06218495
0.06218495
0.06218495
0.06218495
0.06218495
0.06218495
0.06218495
0.06218495
0.06218495
0.06218495
0.06218495
0.06218495
0.06218495
0.06218495
0.06218495
0.06218495
0.06218495
0.06218495
0.06218495
0.06218495
0.06218495
0.06218495
0.06218495
0.06218495
0.06218495
0.06218495
0.06218495
0.06218495
0.06218495
0.06218495
0.06218495
0.06218495
0.06218495
0.06218495
0.06218495
0.06218495
0.06218495
0.06218495
0.06218495
0.06218495
0.06218495
0.06218495
0.06218495
0.06218495
0.06218495
0.06218495
0.06218495
0.06218495
0.06218495
0.06218495
0.06218495
0.06218495
0.06218495
0.06218495
0.06218495
0.06218495
0.06218495
0.06218495
0.06218495
0.06218495
0.06218495
0.06218495
0.06218495
0.06218495
0.06218495
0.06218495
0.06218495
0.06218495
0.06218495
0.06218495
0.06218495
0.06218495
0.06218495
0.06218495
0.06218495
0.06218495
0.06218495
0.06218495
0.06218495
0.06218495
0.06218495
0.06218495
0.06218495
0.06218495
0.06218495
0.06218495
0.06218495
0.06218495
0.06218495
0.06218495
0.06218495
0.06218495
0.06218495
0.06218495
0.06218495
0.06218495
0.06218495
0.06218495
0.06218495
0.06218495
0.06218495
0.06218495
0.06218495
0.06218495
0.06218495
0.06218495
0.06218495
0.06218495
0.06218495
0.06218495
0.06218495
0.06218495
0.06218495
0.06218495
0.06218495
0.06218495
0.06218495
0.06218495
0.06218495
0.06218495
0.06218495
0.06218495
0.06218495
0.06218495
0.06218495
0.06218495
0.06218495
0.06218495
0.06218495
0.06218495
0.06218495
0.06218495
0.06218495
0.06218495
0.06218495
0.06218495
0.06218495
0.06218495
0.06218495
0.06218495
0.06218495
0.06218495
0.06218495
0.06218495
0.06218495
0.06218495
0.06218495
0.06218495
0.06218495
0.06218495
0.06218495
0.06218495
0.06218495
0.06218495
0.06218495
0.06218495
0.06218495
0.06218495
0.06218495
0.06218495
0.06218495
0.06218495
0.06218495
0.06218495
0.06218495
0.06218495
0.06218495
0.06218495
0.06218495
0.06218495
0.06218495
0.06218495001
0.06218495002
0.06218495003
0.06218495005
0.06218495007
0.06218495011
0.06218495017
0.06218495026
0.06218495038
0.06218495055
0.06218495078
0.0621849511
0.06218495158
0.06218495237
0.0621849524
0.06218495246
0.06218495251
0.06218495257
0.06218495263
0.06218495269
0.06218495275
0.06218495281
0.06218495288
0.06218495294
0.06218495301
0.06218495307
0.06218495314
0.06218495321
0.06218495329
0.06218495336
0.06218495344
0.06218495351
0.06218495359
0.06218495367
0.06218495375
0.06218495384
0.06218495392
0.06218495401
0.0621849541
0.06218495419
0.06218495428
0.06218495438
0.06218495447
0.06218495457
0.06218495467
0.06218495478
0.06218495488
0.06218495499
0.0621849551
0.06218495521
0.06218495532
0.06218495544
0.06218495556
0.06218495568
0.0621849558
0.06218495593
0.06218495606
0.06218495619
0.06218495632
0.06218495646
0.06218495659
0.06218495674
0.06218495688
0.06218495703
0.06218495718
0.06218495733
0.06218495749
0.06218495765
0.06218495781
0.06218495797
0.06218495814
0.06218495831
0.06218495849
0.06218495867
0.06218495885
0.06218495903
0.06218495922
0.06218495942
0.06218495961
0.06218495981
0.06218496001
0.06218496022
0.06218496043
0.06218496065
0.06218496087
0.06218496109
0.06218496132
0.06218496155
0.06218496179
0.06218496203
0.06218496227
0.06218496252
0.06218496278
0.06218496303
0.0621849633
0.06218496357
0.06218496384
0.06218496412
0.0621849644
0.06218496469
0.06218496498
0.06218496528
0.06218496558
0.06218496589
0.06218496621
0.06218496653
0.06218496686
0.06218496719
0.06218496753
0.06218496787
0.06218496822
0.06218496858
0.06218496894
0.06218496931
0.06218496968
0.06218497006
0.06218497045
0.06218497085
0.06218497125
0.06218497166
0.06218497208
0.0621849725
0.06218497293
0.06218497337
0.06218497381
0.06218497427
0.06218497473
0.06218497519
0.06218497567
0.06218497616
0.06218497665
0.06218497715
0.06218497766
0.06218497818
0.0621849787
0.06218497924
0.06218497978
0.06218498034
0.0621849809
0.06218498147
0.06218498206
0.06218498265
0.06218498325
0.06218498386
0.06218498448
0.06218498511
0.06218498575
0.06218498641
0.06218498707
0.06218498775
0.06218498843
0.06218498913
0.06218498984
0.06218499056
0.06218499129
0.06218499203
0.06218499279
0.06218499356
0.06218499434
0.06218499513
0.06218499594
0.06218499676
0.06218499759
0.06218499844
0.0621849993
0.06218500018
0.06218500107
0.06218500198
0.0621850029
0.06218500383
0.06218500478
0.06218500575
0.06218500673
0.06218500773
0.06218500875
0.06218500978
0.06218501084
0.06218501191
0.06218501299
0.0621850141
0.06218501522
0.06218501637
0.06218501753
0.06218501871
0.06218501992
0.06218502114
0.06218502239
0.06218502365
0.06218502494
0.06218502626
0.06218502759
0.06218502895
0.06218503033
0.06218503174
0.06218503317
0.06218503463
0.06218503612
0.06218503763
0.06218503917
0.06218504073
0.06218504233
0.06218504395
0.0621850456
0.06218504729
0.062185049
0.06218505075
0.06218505253
0.06218505434
0.06218505619
0.06218505807
0.06218505998
0.06218506194
0.06218506393
0.06218506595
0.06218506802
0.06218507012
0.06218507227
0.06218507446
0.06218507669
0.06218507896
0.06218508127
0.06218508364
0.06218508605
0.0621850885
0.062185091
0.06218509356
0.06218509616
0.06218509882
0.06218510153
0.06218510429
0.06218510711
0.06218510998
0.06218511291
0.06218511591
0.06218511896
0.06218512207
0.06218512525
0.0621851285
0.06218513181
0.06218513519
0.06218513864
0.06218514216
0.06218514575
0.06218514942
0.06218515317
0.062185157
0.0621851609
0.06218516489
0.06218516897
0.06218517313
0.06218517738
0.06218518173
0.06218518616
0.0621851907
0.06218519533
0.06218520006
0.0621852049
0.06218520984
0.0621852149
0.06218522006
0.06218522535
0.06218523075
0.06218523627
0.06218524191
0.06218524769
0.06218525359
0.06218525963
0.06218526581
0.06218527213
0.0621852786
0.06218528521
0.06218529199
0.06218529892
0.06218530601
0.06218531327
0.0621853207
0.06218532831
0.0621853361
0.06218534408
0.06218535225
0.06218536062
0.06218536919
0.06218537797
0.06218538697
0.06218539619
0.06218540563
0.06218541531
0.06218542523
0.0621854354
0.06218544582
0.06218545651
0.06218546746
0.06218547869
0.06218549021
0.06218550203
0.06218551414
0.06218552657
0.06218553932
0.06218555241
0.06218556583
0.0621855796
0.06218559374
0.06218560825
0.06218562314
0.06218563843
0.06218565412
0.06218567024
0.06218568678
0.06218570377
0.06218572122
0.06218573915
0.06218575756
0.06218577648
0.06218579591
0.06218581588
0.0621858364
0.06218585748
0.06218587916
0.06218590143
0.06218592434
0.06218594788
0.06218597209
0.06218599699
0.06218602259
0.06218604892
0.062186076
0.06218610386
0.06218613253
0.06218616202
0.06218619238
0.06218622361
0.06218625576
0.06218628886
0.06218632294
0.06218635802
0.06218639415
0.06218643136
0.06218646969
0.06218650918
0.06218654986
0.06218659179
0.062186635
0.06218667954
0.06218672547
0.06218677282
0.06218682167
0.06218687205
0.06218692404
0.06218697768
0.06218703306
0.06218709023
0.06218714928
0.06218721027
0.06218727329
0.06218733842
0.06218740575
0.06218747538
0.06218754742
0.06218762197
0.06218769915
0.06218777907
0.06218786188
0.06218794771
0.06218803672
0.06218812906
0.06218822491
0.06218832445
0.06218842789
0.06218853543
0.06218864732
0.0621887638
0.06218888514
0.06218901163
0.0621891436
0.06218928138
0.06218942535
0.06218957592
0.06218973351
0.06218989862
0.06219007177
0.06219025353
0.06219044451
0.0621906454
0.06219085695
0.06219107995
0.06219131531
0.062191564
0.06219182708
0.06219210573
0.06219240122
0.06219271497
0.06219304853
0.06219340359
0.06219378202
0.06219418586
0.06219461737
0.06219507902
0.06219557353
0.06219610388
0.06219667335
0.06219728555
0.06219794441
0.06219865427
0.06219941989
0.06220024646
0.06220113967
0.06220210574
0.06220315145
0.06220428421
0.06220551204
0.06220684368
0.06220828856
0.06220985686
0.06221155952
0.06221340826
0.06221541553
0.06221759453
0.06221995911
0.06222252366
0.06222530301
0.06222831214
0.06223156596
0.06223507887
0.06223886425
0.06224293379
0.0622472966
0.06225195815
0.06225691879
0.06226217204
0.06226770241
0.06227348258
0.06227947011
0.06228560327
0.06229179591
0.06229793139
0.06230385502
0.06230936521
0.06231420269
0.06231803793
0.06232045629
0.06232094068
0.06231885169
0.06231340483
0.06230364483
0.06228841694
0.06226633513
0.06223574737
0.06219469787
0.06214088665
0.06207162651
0.06198379767
0.06187380042
0.0617375062
0.0615702074
0.06136656647
0.06112056459
0.06082545018
0.06047368693
0.06005690009
0.05956581588
0.05899020498
0.05831936762
0.05753958182
0.05664113078
0.05559818525
0.05439258268
0.05300126614
0.0514712092
0.04975427621
0.04784074226
0.0457270873
0.0434168249
0.04092113618
0.03825672395
0.03544338041
0.03250351742
0.02946066752
0.02634268356
0.02308572079
0.01992740061
0.01683372249
0.01386297102
0.0110291213
0.008523483974
0.006355081781
0.004559451535
0.00313874917
0.00207838441
0.001328107487
0.0008237719385
0.0005000794378
0.0002998919493
0.0001792130891
0.0001071219104
6.458198767e-05
3.911490633e-05
2.398026548e-05
1.483426729e-05
9.255501493e-06
5.822767952e-06
3.694617214e-06
2.354236286e-06
1.499754913e-06
9.598798929e-07
6.169996818e-07
3.981109895e-07
2.577546858e-07
1.674150607e-07
1.090469184e-07
7.118564391e-08
4.653843022e-08
3.075087048e-08
2.036276714e-08
1.343499884e-08
8.882984628e-09
5.882738219e-09
3.900140233e-09
2.587448649e-09
1.71711113e-09
1.139948018e-09
7.565287631e-10
5.019440622e-10
3.329025713e-10
2.206786721e-10
1.461971278e-10
9.678529488e-11
6.402221517e-11
4.231192643e-11
2.793614599e-11
1.842481004e-11
1.213762471e-11
7.98582246e-12
5.24712516e-12
3.442696489e-12
2.255330047e-12
1.47506949e-12
9.630766085e-13
6.276358166e-13
4.082279636e-13
2.649671505e-13
1.716000863e-13
1.108705304e-13
7.145275995e-14
4.592511961e-14
2.943241201e-14
1.880406185e-14
1.197352098e-14
7.596548167e-15
4.800619773e-15
3.020688282e-15
1.891718668e-15
1.178502225e-15
7.299052959e-16
4.491072253e-16
2.742819206e-16
1.660875972e-16
9.958569298e-17
5.903506375e-17
3.454862939e-17
1.995379236e-17
1.132584993e-17
6.276478256e-18
3.360245513e-18
1.70560559e-18
7.895864183e-19
3.00359838e-19
5.355302009e-20
0
0
0
0
0
0
0
0
0
0
0
0
0
0
0
0
0
0
0
0
0
1.268159488e-23
2.396160761e-23
2.705176735e-23
2.586999519e-23
2.273796168e-23
1.89788433e-23
1.528170035e-23
1.197949582e-23
9.197269307e-24
6.944134759e-24
5.171339819e-24
3.806914977e-24
2.775001059e-24
2.005615631e-24
1.438746125e-24
1.025277575e-24
7.263066413e-25
5.117575969e-25
3.588110538e-25
2.504068235e-25
1.739349655e-25
1.201458512e-25
8.256223254e-26
5.64869922e-26
3.850213701e-26
2.616007557e-26
1.772458187e-26
1.197742408e-26
8.073285078e-27
5.428381409e-27
3.641200587e-27
2.436592992e-27
1.62661838e-27
1.083287727e-27
7.196809965e-28
4.769232078e-28
3.152351118e-28
2.078044222e-28
1.366015104e-28
8.953073141e-29
5.8496187e-29
3.809169488e-29
2.471566864e-29
1.597449381e-29
1.028129457e-29
6.58671782e-30
4.198707475e-30
2.662126289e-30
1.678529529e-30
1.052804097e-30
6.575389904e-31
4.085477631e-31
2.522512929e-31
1.545657777e-31
9.383280948e-32
5.631312536e-32
3.331144577e-32
1.934123024e-32
1.095343664e-32
5.989625695e-33
3.106321621e-33
1.472709195e-33
5.78992376e-34
1.152939877e-34
0
0
0
0
0
0
0
0
0
0
0
0
0
0
0
0
0
0
0
0
0
0
0
0
0
3.975264427e-39
9.553904355e-39
1.129572803e-38
1.102328099e-38
9.806069327e-39
8.244514646e-39
6.67065831e-39
5.248588104e-39
4.042795173e-39
3.062500535e-39
2.2890542e-39
1.692433042e-39
1.240131511e-39
9.018627666e-40
6.51627755e-40
4.681776518e-40
3.347054142e-40
2.382249396e-40
1.68877449e-40
1.192804983e-40
8.396671248e-41
5.892369639e-41
4.122926393e-41
2.876909271e-41
2.002197636e-41
1.389871009e-41
9.622457842e-42
6.640544442e-42
4.564964865e-42
3.127806973e-42
2.137084386e-42
1.456666646e-42
9.908471495e-43
6.728082143e-43
4.561693922e-43
3.088939841e-43
2.089430013e-43
1.412075469e-43
9.536036846e-44
6.436046067e-44
4.341773604e-44
2.927944281e-44
1.974016989e-44
1.330642919e-44
8.968415499e-45
6.044110712e-45
4.072963638e-45
2.74464161e-45
1.849728678e-45
1.246363449e-45
8.395108361e-46
5.652786852e-46
3.806380803e-46
2.565687964e-46
1.732057845e-46
1.158456641e-46
7.737006172e-47
5.16435649e-47
3.427798142e-47
2.269164585e-47
1.498071418e-47
9.867005916e-48
6.493194364e-48
4.286772227e-48
2.870502926e-48
2.000235054e-48
1.530741251e-48
1.137651115e-48
9.865820257e-49
7.387306309e-49
5.070257279e-49
3.729143051e-49
3.178837739e-49
3.23211854e-49
2.806710962e-49
2.22822655e-49
2.100651031e-49
1.718914801e-49
1.304592851e-49
1.054335424e-49
1.028625485e-49
7.601653119e-50
6.458589477e-50
5.455936942e-50
4.174481937e-50
2.778494982e-50
1.898311426e-50
1.391256661e-50
1.205750594e-50
1.315738764e-50
1.475630813e-50
1.458170839e-50
1.116948838e-50
1.022199382e-50
8.535555532e-51
6.457204447e-51
5.880331079e-51
3.880901817e-51
2.956818416e-51
3.000647243e-51
4.057581157e-51
2.946020362e-51
2.637484233e-51
2.056122135e-51
2.014492554e-51
1.879446555e-51
1.381466246e-51
1.201106122e-51
1.271760025e-51
9.601490165e-52
8.17855338e-52
6.73819066e-52
6.499549142e-52
5.510004575e-52
4.639893145e-52
4.053338631e-52
4.0878202e-52
4.584944604e-52
3.93500867e-52
3.732498057e-52
3.685469158e-52
4.261135797e-52
3.05338745e-52
2.360856395e-52
2.037762156e-52
1.856338183e-52
1.346787276e-52
1.130421982e-52
1.188110977e-52
1.026271009e-52
1.117596131e-52
1.145829914e-52
1.086462315e-52
9.897576277e-53
8.270482072e-53
7.638349166e-53
8.029762358e-53
8.474114769e-53
8.326127179e-53
8.105354988e-53
6.93239131e-53
6.605335425e-53
6.022941505e-53
5.758843676e-53
5.297160699e-53
4.705901048e-53
4.424498507e-53
3.998925206e-53
3.703163509e-53
3.455376522e-53
3.166572748e-53
2.983396924e-53
2.829118426e-53
2.719869139e-53
2.561211842e-53
2.377143597e-53
2.238381517e-53
2.093947828e-53
1.9722135e-53
1.881766211e-53
1.793340965e-53
1.728498262e-53
1.65419559e-53
1.553148092e-53
1.46027897e-53
1.377798291e-53
1.299743813e-53
1.221465782e-53
1.147259578e-53
1.078011095e-53
1.018883731e-53
9.563000008e-54
9.012539048e-54
8.497195799e-54
8.040668995e-54
7.654996674e-54
7.22648118e-54
6.842692117e-54
6.47003508e-54
6.106102047e-54
5.764108564e-54
5.450716135e-54
5.147071102e-54
4.863517685e-54
4.604312082e-54
4.36081819e-54
4.123932238e-54
3.896289978e-54
3.683184635e-54
3.479743988e-54
3.291540191e-54
3.113681513e-54
2.944880699e-54
2.786705574e-54
2.638414994e-54
2.496682421e-54
2.361846786e-54
2.233845621e-54
2.113639776e-54
2.000568579e-54
1.89407031e-54
1.793821792e-54
1.69859268e-54
1.608600321e-54
1.523486799e-54
1.442885281e-54
1.366065088e-54
1.29438783e-54
1.226550094e-54
1.162033114e-54
1.101028801e-54
1.043505423e-54
9.889695698e-55
9.375218173e-55
8.883269628e-55
8.417972352e-55
7.981041549e-55
7.567240331e-55
7.176034442e-55
6.80379723e-55
6.450557881e-55
6.114414502e-55
5.798384615e-55
5.500327285e-55
5.217031823e-55
4.94868902e-55
4.693802897e-55
4.450903431e-55
4.222780273e-55
4.00577476e-55
3.800750484e-55
3.606651885e-55
3.421677526e-55
3.247077718e-55
3.081453295e-55
2.924134756e-55
2.774457946e-55
2.632185774e-55
2.498461138e-55
2.372023691e-55
2.251583732e-55
2.136673187e-55
2.027796742e-55
1.924958065e-55
1.828181904e-55
1.736196801e-55
1.64809575e-55
1.564512548e-55
1.48591918e-55
1.412133138e-55
1.3412091e-55
1.273957704e-55
1.210211654e-55
1.149684548e-55
1.092040554e-55
1.037241668e-55
9.854210771e-56
9.36153349e-56
8.883469409e-56
8.433208627e-56
8.009371859e-56
7.611979051e-56
7.239536659e-56
6.880896897e-56
6.538836991e-56
6.214093435e-56
5.905396079e-56
5.607239478e-56
5.330055096e-56
5.067946835e-56
4.817590642e-56
4.580813541e-56
4.352776387e-56
4.133905511e-56
3.926113167e-56
3.730485328e-56
3.544502313e-56
3.369455645e-56
3.204531864e-56
3.047385186e-56
2.895957236e-56
2.750670841e-56
2.61376267e-56
2.485587647e-56
2.362802948e-56
2.246345154e-56
2.135652904e-56
2.031157715e-56
1.933146415e-56
1.837435195e-56
1.746956535e-56
1.659317189e-56
1.577984422e-56
1.501914621e-56
1.428543627e-56
1.358606797e-56
1.293277097e-56
1.229068045e-56
1.168115707e-56
1.110871612e-56
1.056212859e-56
1.004638588e-56
9.555377003e-57
9.094273718e-57
8.668087092e-57
8.237951193e-57
7.821739934e-57
7.427835881e-57
7.082458932e-57
6.74096051e-57
6.409451433e-57
6.099017618e-57
5.80223422e-57
5.508686371e-57
5.231562464e-57
4.9767136e-57
4.737411145e-57
4.505874404e-57
4.281495241e-57
4.070892927e-57
3.870242756e-57
3.689102484e-57
3.504530931e-57
3.327545462e-57
3.168218582e-57
3.016570104e-57
2.865863082e-57
2.719872035e-57
2.587087016e-57
2.456311104e-57
2.332889929e-57
2.211369285e-57
2.097857435e-57
1.991545636e-57
1.885785465e-57
1.788521626e-57
1.696318273e-57
1.025125998e-57
5.288149858e-58
2.524926827e-58
1.293850378e-58
6.94834279e-59
3.519900408e-59
1.707210889e-59
8.188160731e-60
3.571316209e-60
2.166991856e-60
1.027274895e-60
4.476482264e-61
2.750044626e-61
1.829410389e-61
7.401682652e-62
2.247673584e-62
5.464741979e-63
1.38492275e-62
3.795064805e-63
1.665463659e-63
2.317341349e-63
9.284386138e-65
3.955635794e-64
6.444116511e-65
2.168780603e-65
6.005583421e-66
6.194669798e-66
4.742430895e-66
2.96103293e-66
4.129288341e-66
1.696331381e-66
3.958144604e-66
0
2.629621375e-69
1.363076007e-67
6.197498357e-69
1.230065531e-67
8.906788626e-68
2.302516825e-68
0
2.077058137e-68
2.452865045e-68
4.571730212e-70
0
1.600952668e-68
1.875378741e-68
8.722956646e-71
8.346714966e-69
2.885192255e-69
1.308996671e-69
4.031073805e-69
6.118653151e-69
1.235389233e-70
4.564661118e-70
3.250299692e-70
7.510786153e-70
3.911656426e-70
1.530688346e-72
2.420040784e-70
8.827259759e-71
2.19578745e-72
3.176572882e-73
8.90052305e-72
4.189872e-73
0
2.556752462e-72
5.979035094e-73
3.142949564e-74
2.648766526e-73
4.804001111e-73
0
0
9.719089624e-74
1.821458533e-74
0
3.03228162e-74
1.676478854e-75
3.535138231e-74
2.187130171e-74
1.150697551e-74
2.112701595e-75
9.05782577e-75
4.987186851e-75
3.743874042e-76
4.365791367e-76
7.237407829e-77
3.039726363e-76
2.496313083e-76
1.497458073e-77
7.135043105e-78
4.177232385e-77
2.416604097e-77
4.253098875e-79
5.343252856e-79
2.266079572e-78
0
7.480024333e-80
0
2.479520111e-80
4.123723128e-80
4.900783652e-82
8.270327436e-81
1.477277698e-80
3.450104544e-81
2.188081792e-81
6.462278316e-83
1.047852056e-81
8.883519751e-82
2.256448441e-81
3.900883396e-81
2.275476862e-83
1.617500664e-82
6.674153537e-82
2.044391332e-81
8.270621493e-82
4.708394674e-82
1.154244033e-81
0
9.267621469e-82
7.979249642e-82
4.186377367e-82
5.627477197e-83
3.556140123e-82
3.914790799e-83
2.962272017e-82
2.667079871e-82
0
0
0
4.180018495e-83
0
1.471382102e-81
6.228711629e-82
1.041696743e-83
9.120997595e-82
5.62889153e-82
0
6.605627397e-83
3.285769005e-82
1.408998881e-81
1.82484274e-81
3.382600891e-83
0
7.763871416e-82
0
1.403004051e-82
1.640032594e-82
3.042345979e-81
5.314677522e-83
4.285228738e-82
0
0
2.987266871e-83
1.335315047e-81
5.978777747e-82
1.613558681e-81
0
2.787702316e-84
1.931033186e-81
2.839044307e-83
9.992620098e-82
3.202877833e-82
5.488167514e-82
1.465464338e-83
1.288677445e-81
0
3.401321567e-81
0
0
1.467847982e-81
2.228575865e-81
1.571440828e-81
4.474028207e-82
6.396595791e-82
2.209556714e-82
0
1.790690157e-81
1.157750276e-81
0
0
7.490483785e-83
0
8.127275303e-82
0
1.894166718e-82
5.704874488e-82
0
3.010010919e-81
5.879023836e-82
1.183495645e-82
3.916305653e-82
1.162337935e-81
1.68147628e-83
0
0
0
5.748414071e-82
1.198291874e-81
0
5.102102349e-82
6.296203513e-84
1.070918484e-81
9.251730442e-82
1.157650477e-81
0
1.0010739e-81
0
4.235071682e-82
7.358106197e-82
4.844196055e-84
0
0
1.406988594e-82
2.073638636e-84
0
2.614916684e-84
0
1.191250233e-83
1.451135581e-82
0
2.657468093e-86
6.808690969e-84
9.43034261e-84
6.526835152e-86
0
0
0
2.295890479e-82
0
1.14537203e-81
1.044541073e-81
6.194042993e-85
5.700066722e-83
2.435409136e-82
1.135431945e-83
3.51097315e-82
2.089907236e-82
1.207566265e-81
2.054855156e-82
6.385328657e-83
0
1.307484565e-81
4.503624966e-81
1.329012342e-81
1.087595771e-81
5.803070384e-82
1.559401409e-82
0
0
0
)
;

boundaryField
{
    inlet
    {
        type            fixedValue;
        value           uniform 0;
    }
    outlet
    {
        type            zeroGradient;
    }
    wall
    {
        type            empty;
    }
}


// ************************************************************************* //
