/*--------------------------------*- C++ -*----------------------------------*\
  =========                 |
  \\      /  F ield         | OpenFOAM: The Open Source CFD Toolbox
   \\    /   O peration     | Website:  https://openfoam.org
    \\  /    A nd           | Version:  7
     \\/     M anipulation  |
\*---------------------------------------------------------------------------*/
FoamFile
{
    version     2.0;
    format      ascii;
    class       volScalarField;
    location    "0.000558243009";
    object      CH2(S)_0;
}
// * * * * * * * * * * * * * * * * * * * * * * * * * * * * * * * * * * * * * //

dimensions      [0 0 0 0 0 0 0];

internalField   nonuniform List<scalar> 
1500
(
0
0
0
1.517397908e-41
7.136685158e-42
8.251035191e-42
0
1.758747623e-42
1.297417436e-41
8.414495358e-45
1.477052175e-44
0
5.291345287e-42
0
1.143563246e-43
2.472863197e-43
2.805663897e-42
0
1.628390793e-41
5.987801878e-42
3.892318366e-42
1.294328965e-41
0
2.439216169e-42
9.539705097e-42
1.279531008e-41
2.0724939e-41
7.570371025e-42
0
2.3398607e-42
0
6.201126145e-45
5.892684542e-43
5.03829884e-42
0
0
0
0
4.804936822e-42
2.801444162e-43
2.093445787e-42
3.951275799e-42
6.698345726e-42
7.358307948e-43
1.315584051e-42
2.018549451e-44
1.12574697e-41
4.91616504e-42
1.797557477e-41
0
1.289837683e-41
0
5.22434807e-42
0
1.316510512e-41
1.509027261e-42
1.533124592e-41
0
9.830026369e-43
0
0
5.28262407e-43
7.087365707e-42
0
1.796292461e-41
1.04122607e-41
3.450891741e-42
1.419510246e-41
0
4.344635942e-42
1.108451776e-41
0
0
1.873364135e-41
1.670213971e-41
1.642661041e-44
1.981620896e-41
3.035882285e-44
6.939233669e-42
1.566248619e-42
0
2.875636629e-42
5.736953864e-42
1.112313945e-41
3.727106721e-42
1.04322607e-43
0
0
0
8.326673011e-45
9.15955121e-42
9.789155621e-43
3.07624552e-43
1.863944508e-43
4.61621039e-42
1.45923267e-41
6.27719899e-43
1.254770159e-42
1.566587311e-43
1.66536779e-41
1.347427617e-42
2.398000696e-42
0
9.858738597e-43
0
0
7.93693027e-43
3.067611819e-42
1.39598757e-41
0
2.250621502e-41
0
4.560437117e-42
2.966965576e-42
0
0
2.424863779e-41
0
6.318254148e-43
1.479649138e-41
2.199177049e-42
3.213060915e-42
3.978118315e-42
1.194673144e-41
1.111728111e-41
1.107847072e-41
1.577901553e-43
1.799749986e-41
7.947016416e-42
1.319101176e-41
5.483479671e-44
0
2.020271936e-43
5.16415022e-45
1.205945947e-42
1.172243788e-41
0
1.74160926e-42
1.380099516e-41
1.075339644e-42
6.360680651e-42
7.981631636e-42
4.322818882e-43
2.04159124e-42
8.207764384e-44
2.816983721e-42
9.476224602e-42
1.746136362e-41
5.481629974e-43
0
0
5.062719893e-42
1.365224596e-42
1.097693468e-41
0
4.144555336e-42
3.34974522e-42
3.66529314e-42
1.193127084e-43
5.102538759e-42
0
2.754001947e-43
2.853483558e-42
1.686623653e-41
1.958555476e-41
5.61080905e-44
1.861491963e-42
0
2.764377035e-42
1.985531758e-41
5.479755696e-43
1.614912153e-41
1.243256903e-41
4.13548247e-44
3.153066339e-42
7.791587178e-42
0
6.07827472e-42
0
1.418775897e-42
0
1.655508618e-42
5.200632438e-42
3.033670339e-44
0
0
1.292594748e-41
0
0
5.82008731e-44
5.581188766e-42
5.082137323e-42
0
0
1.464738357e-42
0
2.523505006e-41
9.066688289e-42
1.775012553e-43
1.041059448e-42
0
2.884973297e-42
1.234629391e-43
1.759349005e-44
1.446497979e-41
1.081383492e-41
1.637945731e-41
1.294598023e-42
0
5.505028114e-42
1.132386945e-41
1.471112184e-41
0
1.342945174e-41
0
2.795398932e-42
4.073429124e-44
0
0
2.069186812e-42
2.256928865e-43
0
4.056303982e-44
5.885820932e-42
1.524116304e-44
0
0
9.84799865e-43
5.917063184e-42
1.193740673e-41
0
7.169412349e-42
1.252111517e-41
2.343342138e-41
5.172314756e-42
0
2.951590645e-42
3.880191248e-42
0
2.158134914e-42
1.397639246e-42
5.435260088e-42
4.121585176e-42
5.064264067e-44
1.74778872e-41
1.790723939e-42
4.727417093e-42
2.059560132e-42
0
6.551707942e-42
7.524614463e-42
2.051906351e-42
1.719175498e-42
5.792371697e-44
0
1.440267734e-43
3.240031287e-42
1.349106375e-42
6.972584046e-43
2.632594334e-43
8.684634872e-44
9.321925169e-44
2.494143824e-43
1.176945171e-42
6.010911412e-42
2.096596033e-42
1.084512389e-42
2.815874071e-42
2.982551626e-42
7.506417835e-43
1.689892529e-42
9.639300059e-42
4.373081126e-42
8.198050935e-42
1.373042061e-42
2.094259451e-42
7.579072213e-42
6.091389019e-42
9.245739472e-42
3.194252757e-42
1.2676839e-42
1.127455873e-42
2.722366614e-43
0
1.584377467e-42
6.269698919e-42
5.797495203e-42
9.007468259e-42
3.376976256e-42
6.129670845e-42
3.486726613e-42
1.702838763e-42
1.686152151e-42
3.298616367e-42
1.620829445e-42
2.167206264e-42
2.367774614e-42
8.448032501e-43
1.977557817e-42
9.324313837e-42
4.031192447e-42
1.5557241e-42
5.416344619e-42
3.823198689e-42
3.558424626e-42
8.069128854e-43
1.405098609e-43
9.276551886e-43
9.612236161e-42
8.277928137e-42
6.494166835e-42
2.23457981e-42
1.215319015e-42
1.16659571e-43
4.539553462e-43
2.7077308e-42
1.426924998e-41
1.307309874e-41
4.763879528e-42
1.105131978e-41
2.174147596e-42
1.677400027e-43
0
1.222832901e-42
6.855324813e-42
1.109136864e-41
3.890101e-42
5.296860776e-43
0
3.121491871e-43
2.946496383e-42
4.284242442e-42
1.196296628e-41
4.167650057e-42
4.591092466e-42
4.682234019e-42
9.302321712e-42
4.690044839e-42
7.381507753e-42
6.575017382e-42
1.73941442e-42
6.905327958e-43
9.981669441e-43
2.790662809e-42
5.875311557e-42
1.338794961e-41
3.665883311e-42
1.606731131e-42
3.705792419e-42
3.944988402e-42
7.258032989e-42
3.535628408e-42
1.128299075e-41
1.493258085e-41
4.671758714e-42
2.554107197e-42
6.579260068e-42
2.046240946e-42
3.020108456e-42
1.976525537e-42
1.076706936e-42
1.61422979e-43
0
1.274685382e-42
6.852990255e-42
3.867341005e-42
1.148118748e-41
4.586482399e-42
5.314933355e-42
3.232868006e-42
5.381811354e-42
2.38742646e-42
6.773076833e-42
1.312256528e-42
0
8.698239661e-44
1.142019986e-43
9.461103096e-43
5.384769791e-42
2.618424501e-42
4.755212027e-42
5.769101983e-42
6.815128152e-42
6.269265378e-42
6.957343715e-42
6.723788853e-42
5.098969326e-42
1.524442642e-41
5.764077421e-42
2.358143499e-42
3.761543968e-42
5.690631448e-44
9.792646327e-44
1.025505858e-43
6.249323234e-44
0
2.414885073e-42
2.648456866e-42
3.122328122e-42
1.216692798e-41
9.09122855e-42
2.077971672e-41
5.906691741e-42
7.488578314e-42
1.638997299e-42
6.021526238e-43
3.726997599e-43
7.805382096e-43
2.973904798e-42
1.844779165e-42
2.843604858e-42
7.424207512e-42
1.18750039e-41
1.508738402e-41
4.68545651e-42
1.416586017e-42
1.487529201e-42
6.21744521e-42
8.777304601e-42
7.644238091e-42
2.314658507e-41
9.170474935e-42
1.976107207e-41
2.757678949e-41
1.253336913e-41
6.794499325e-42
2.340982264e-41
7.223248603e-42
1.413297178e-41
2.598903019e-41
9.052597932e-42
1.066590953e-41
1.756279487e-41
6.395687078e-42
7.832171194e-42
3.320304987e-41
2.788730845e-41
1.682498946e-41
5.89577412e-41
1.475925356e-41
3.495241111e-42
1.250677385e-42
1.382176974e-41
1.808506912e-42
2.681140478e-42
3.258937945e-42
7.056860045e-42
1.726079955e-42
1.463437653e-42
4.546555738e-42
2.939848984e-41
1.413445872e-41
5.4288965e-42
1.713086348e-41
1.451921128e-41
5.390835665e-42
5.418803522e-42
1.990754175e-41
1.007244614e-41
2.62578752e-41
7.197316449e-42
2.500904975e-42
2.200614593e-42
6.369222795e-42
3.048616636e-41
1.579041009e-41
8.947177824e-42
7.778765998e-42
1.417227605e-41
1.730548671e-41
6.048771034e-41
1.809348448e-41
2.10061154e-41
8.490959436e-41
2.843576516e-41
1.727029521e-41
5.83181853e-41
1.928548763e-41
2.459954324e-41
6.01298006e-41
2.891383578e-41
7.824004357e-42
6.166018976e-42
1.432776166e-41
6.845527058e-41
1.566050243e-41
6.327054344e-42
1.759615832e-41
2.222492835e-41
6.48138122e-41
6.57475729e-41
1.861609993e-41
2.19866178e-41
9.236539606e-41
1.044043866e-40
3.148082928e-41
3.854189506e-41
1.251271146e-40
3.487547231e-41
3.035371903e-41
8.367078699e-41
2.094466923e-41
5.222929165e-43
1.44852159e-41
6.570486284e-41
2.194203718e-41
4.297614894e-41
1.70272878e-41
6.929836284e-41
7.333177881e-41
1.048398782e-40
7.299133706e-41
1.661241989e-40
3.619805668e-41
0
4.108348019e-42
0
0
9.418006208e-42
5.726373619e-42
7.528135525e-42
3.545172877e-41
1.310436518e-40
3.36001069e-41
4.31906525e-41
1.114087061e-41
1.310861224e-41
3.27629896e-41
1.563139316e-41
1.430620866e-41
2.720365478e-41
9.942468375e-42
2.599598252e-41
1.420697967e-40
5.55693271e-41
2.292284789e-41
3.662611673e-41
1.061196566e-40
1.488290607e-40
1.147511357e-40
2.277529652e-41
2.377452342e-41
1.075259805e-40
2.765328239e-41
3.038591701e-41
6.552424734e-41
2.547821648e-40
2.843710129e-40
7.396087714e-41
4.577793394e-41
1.725019942e-41
0
0
0
0
3.333903235e-42
1.651684183e-40
6.175710693e-41
4.829026887e-41
1.149146277e-40
4.380157106e-40
2.315816738e-40
2.035270719e-40
1.171785951e-40
2.015664384e-40
2.214786039e-40
3.633771984e-40
2.682195825e-40
8.802172733e-41
4.910416448e-41
4.980877202e-42
0
0
0
5.105245532e-42
2.632131721e-41
3.828338481e-41
5.796525309e-41
3.755923558e-40
9.567600132e-41
8.66886801e-41
3.74195402e-40
9.233237239e-41
6.152950022e-41
1.445415186e-40
7.042641522e-40
7.475220946e-40
5.016391105e-40
4.62771101e-40
7.622105042e-41
1.61492601e-40
1.853859367e-40
3.439236928e-40
2.997241996e-40
1.799860648e-40
3.36707364e-40
1.005886815e-39
7.37284906e-40
5.460241101e-40
3.531688547e-40
7.926644766e-40
4.585411356e-39
1.441340305e-39
2.239404702e-39
1.60224218e-39
1.348997192e-39
5.363265134e-39
2.101055741e-39
2.274670907e-39
6.945266835e-39
8.274947636e-39
3.629907596e-39
6.498557444e-39
2.965957086e-38
1.589453872e-38
1.557761728e-38
2.476808401e-38
1.519189179e-38
3.46736235e-39
4.179408563e-39
1.916716549e-38
1.555379249e-38
4.30196233e-38
1.238681315e-37
4.187856306e-38
2.573909501e-38
1.467513665e-37
6.747280506e-37
4.152401042e-37
1.508612001e-36
1.688974484e-36
1.040407037e-36
2.202769351e-36
1.150847455e-36
4.048313151e-36
8.774001546e-37
1.816854762e-36
5.796071915e-36
1.808190499e-35
4.625518414e-36
2.910808274e-36
2.696444409e-36
5.410611188e-36
1.404421332e-35
3.802338404e-35
3.46022475e-35
3.022125989e-35
9.455753238e-35
5.807437424e-35
2.197840131e-34
8.979843961e-34
2.882422388e-34
2.754294755e-34
5.077204554e-34
1.751307822e-34
4.403922372e-34
3.139977497e-34
4.534187169e-34
1.464570217e-33
4.968151382e-33
1.585096404e-32
4.678511756e-32
1.375886209e-31
3.45981178e-31
1.663807449e-30
8.92774998e-30
5.336403666e-29
2.996306313e-28
1.580906007e-27
7.83934186e-27
3.681280589e-26
1.647700272e-25
7.06437383e-25
2.912025715e-24
1.157284512e-23
4.44328044e-23
1.650680073e-22
5.940715241e-22
2.073206196e-21
7.021176096e-21
2.30901096e-20
7.378085267e-20
2.291901872e-19
6.924763005e-19
2.036038826e-18
5.828429954e-18
1.625215696e-17
4.416428576e-17
1.170135249e-16
3.024170404e-16
7.627452309e-16
1.878241214e-15
4.517692933e-15
1.061870576e-14
2.44014511e-14
5.484728892e-14
1.206443715e-13
2.597993819e-13
5.482368199e-13
1.133368753e-12
2.301410955e-12
4.589157749e-12
8.994192293e-12
1.722534568e-11
3.243096809e-11
6.000809043e-11
1.090659655e-10
1.945219495e-10
3.40007084e-10
5.81878802e-10
9.752927592e-10
1.603131649e-09
2.590401217e-09
4.12606439e-09
6.515094298e-09
1.013106145e-08
1.559453704e-08
2.374635173e-08
3.581880381e-08
5.318711378e-08
7.790956693e-08
1.124861543e-07
1.600773001e-07
2.239918043e-07
3.075539085e-07
4.134518043e-07
5.428759314e-07
6.944619971e-07
8.633553637e-07
1.041209835e-06
1.215582818e-06
1.374060618e-06
1.503536346e-06
1.595107314e-06
1.643925418e-06
1.649797573e-06
1.616571296e-06
1.550478591e-06
1.458975332e-06
1.350464095e-06
1.232382849e-06
1.111059698e-06
9.91546039e-07
8.772103758e-07
7.705081273e-07
6.727151726e-07
5.83979483e-07
5.051010407e-07
4.350924967e-07
3.732055567e-07
3.192142828e-07
2.723716545e-07
2.319189355e-07
1.97122081e-07
1.672919665e-07
1.418011343e-07
1.200630393e-07
1.015700886e-07
8.586689186e-08
7.255342807e-08
6.12808011e-08
5.174652545e-08
4.36896771e-08
3.68861447e-08
3.114413274e-08
2.630000581e-08
2.221451769e-08
1.876943841e-08
1.586457027e-08
1.341513182e-08
1.134948112e-08
9.607146367e-09
8.137130795e-09
6.896459915e-09
5.848940801e-09
4.964105672e-09
4.216314686e-09
3.583995613e-09
3.049000669e-09
2.596063334e-09
2.21234019e-09
1.887024914e-09
1.61102336e-09
1.376680264e-09
1.177549506e-09
1.008201096e-09
8.640590525e-10
7.412652703e-10
6.365652365e-10
5.472120836e-10
4.708860425e-10
4.056268181e-10
3.497768032e-10
3.019333858e-10
2.609088819e-10
2.256968645e-10
1.954438562e-10
1.694255233e-10
1.470266441e-10
1.277242471e-10
1.110734087e-10
9.669528495e-11
8.426701951e-11
7.351322916e-11
6.419881528e-11
5.61228909e-11
4.91136467e-11
4.302400777e-11
3.772795667e-11
3.311741828e-11
2.909961855e-11
2.559484341e-11
2.253453576e-11
1.985967803e-11
1.751941667e-11
1.546989113e-11
1.367323624e-11
1.209673164e-11
1.071207581e-11
9.49476612e-12
8.42356875e-12
7.480065235e-12
6.648264116e-12
5.914268092e-12
5.265988478e-12
4.692900042e-12
4.185830308e-12
3.736778335e-12
3.33875869e-12
2.985667009e-12
2.672164053e-12
2.393575611e-12
2.145806033e-12
1.925263442e-12
1.728795012e-12
1.553630898e-12
1.397335619e-12
1.257765869e-12
1.13303387e-12
1.021475519e-12
9.216226662e-13
8.321789788e-13
7.519989036e-13
6.800693148e-13
6.154934916e-13
5.574771187e-13
5.053160428e-13
4.58385557e-13
4.161310145e-13
3.780595994e-13
3.437331073e-13
3.127616055e-13
2.847978622e-13
2.59532447e-13
2.366894183e-13
2.160225256e-13
1.973118604e-13
1.803609033e-13
1.64993916e-13
1.510536374e-13
1.383992472e-13
1.269045631e-13
1.164564461e-13
1.069533856e-13
9.830424692e-14
9.042715818e-14
8.324852321e-14
7.670214388e-14
7.072844e-14
6.527375514e-14
6.028973871e-14
5.573279542e-14
5.156359444e-14
4.774663165e-14
4.42498389e-14
4.104423487e-14
3.810361325e-14
3.540426371e-14
3.292472233e-14
3.064554811e-14
2.854912267e-14
2.661947087e-14
2.484209974e-14
2.3203854e-14
2.169278634e-14
2.029804081e-14
1.900974806e-14
1.781893099e-14
1.671742001e-14
1.569777655e-14
1.475322426e-14
1.387758697e-14
1.30652327e-14
1.231102316e-14
1.161026819e-14
1.095868449e-14
1.035235847e-14
9.787712566e-15
9.261474776e-15
8.770651104e-15
8.312500607e-15
7.88451277e-15
7.484387023e-15
7.110014142e-15
6.759459395e-15
6.430947233e-15
6.122847388e-15
5.833662255e-15
5.562015405e-15
5.306641153e-15
5.066375068e-15
4.840145334e-15
4.626964882e-15
4.425924228e-15
4.23618494e-15
4.056973694e-15
3.887576841e-15
3.727335463e-15
3.575640848e-15
3.43193036e-15
3.295683682e-15
3.166419362e-15
3.043691666e-15
2.927087701e-15
2.816224784e-15
2.710748024e-15
2.610328119e-15
2.514659332e-15
2.423457643e-15
2.336459048e-15
2.253418002e-15
2.174105993e-15
2.098310225e-15
2.025832431e-15
1.956487748e-15
1.890103711e-15
1.826519323e-15
1.765584198e-15
1.70715777e-15
1.651108563e-15
1.597313529e-15
1.545657431e-15
1.496032277e-15
1.448336797e-15
1.402475964e-15
1.358360547e-15
1.315906704e-15
1.275035604e-15
1.235673077e-15
1.197749291e-15
1.161198461e-15
1.125958562e-15
1.091971086e-15
1.059180799e-15
1.027535524e-15
9.969859466e-16
9.674854163e-16
9.389897812e-16
9.114572262e-16
8.848481208e-16
8.591248868e-16
8.342518624e-16
8.101951895e-16
7.869226979e-16
7.644038067e-16
7.426094246e-16
7.215118628e-16
7.010847518e-16
6.813029642e-16
6.621425406e-16
6.435806262e-16
6.255954033e-16
6.081660367e-16
5.912726182e-16
5.748961141e-16
5.590183188e-16
5.436218096e-16
5.286899034e-16
5.142066211e-16
5.001566472e-16
4.865252982e-16
4.732984896e-16
4.604627044e-16
4.480049663e-16
4.359128115e-16
4.241742635e-16
4.127778109e-16
4.017123844e-16
3.909673379e-16
3.805324247e-16
3.70397782e-16
3.605539113e-16
3.509916647e-16
3.417022264e-16
3.326770982e-16
3.239080872e-16
3.153872918e-16
3.071070901e-16
2.990601266e-16
2.912393001e-16
2.836377553e-16
2.762488715e-16
2.690662533e-16
2.620837211e-16
2.552953038e-16
2.486952276e-16
2.422779117e-16
2.360379587e-16
2.299701477e-16
2.240694287e-16
2.183309136e-16
2.127498739e-16
2.073217308e-16
2.020420526e-16
1.969065476e-16
1.919110592e-16
1.870515617e-16
1.823241561e-16
1.777250635e-16
1.732506228e-16
1.688972856e-16
1.646616126e-16
1.605402699e-16
1.56530025e-16
1.526277432e-16
1.48830385e-16
1.451350028e-16
1.415387371e-16
1.380388144e-16
1.346325433e-16
1.313173134e-16
1.280905912e-16
1.249499173e-16
1.218929061e-16
1.189172416e-16
1.160206754e-16
1.132010246e-16
1.104561708e-16
1.077840556e-16
1.051826819e-16
1.026501096e-16
1.001844548e-16
9.778388762e-17
9.544663057e-17
9.317095666e-17
9.09551894e-17
8.879769933e-17
8.669690365e-17
8.465126478e-17
8.26592875e-17
8.071952014e-17
7.88305513e-17
7.699100979e-17
7.5199563e-17
7.345491548e-17
7.175580842e-17
7.010101796e-17
6.848935388e-17
6.691965993e-17
6.539081193e-17
6.390171672e-17
6.245131174e-17
6.103856367e-17
5.966246772e-17
5.832204682e-17
5.701635113e-17
5.574445639e-17
5.450546479e-17
5.329850219e-17
5.212271945e-17
5.097728985e-17
4.986140951e-17
4.877429617e-17
4.77151893e-17
4.668334943e-17
4.567805691e-17
4.469861176e-17
4.374433272e-17
4.281455716e-17
4.190864034e-17
4.102595514e-17
4.016589148e-17
3.932785549e-17
3.851126912e-17
3.771557045e-17
3.694021238e-17
3.618466298e-17
3.544840418e-17
3.473093153e-17
3.403175459e-17
3.335039597e-17
3.268639095e-17
3.20392872e-17
3.14086447e-17
3.079403532e-17
3.01950419e-17
2.961125886e-17
2.904229113e-17
2.848775426e-17
2.794727374e-17
2.742048481e-17
2.69070331e-17
2.640657329e-17
2.591876927e-17
2.54432938e-17
2.497982829e-17
2.452806238e-17
2.408769421e-17
2.365842993e-17
2.323998296e-17
2.28320748e-17
2.243443405e-17
2.204679634e-17
2.166890459e-17
2.1300508e-17
2.094136273e-17
2.059123111e-17
2.024988211e-17
1.991709049e-17
1.959263653e-17
1.927630682e-17
1.896789312e-17
1.866719284e-17
1.837400885e-17
1.808814893e-17
1.780942575e-17
1.753765714e-17
1.727266556e-17
1.701427815e-17
1.67623264e-17
1.651664619e-17
1.62770779e-17
1.604346593e-17
1.581565866e-17
1.559350849e-17
1.537687146e-17
1.516560753e-17
1.495958008e-17
1.475865657e-17
1.456270711e-17
1.437160571e-17
1.418522946e-17
1.400345859e-17
1.382617645e-17
1.365326926e-17
1.348462651e-17
1.33201405e-17
1.315970607e-17
1.300322063e-17
1.285058464e-17
1.270170111e-17
1.255647508e-17
1.24148145e-17
1.227662944e-17
1.214183249e-17
1.201033804e-17
1.188206304e-17
1.17569266e-17
1.163484995e-17
1.151575603e-17
1.139956987e-17
1.128621846e-17
1.117563075e-17
1.106773745e-17
1.096247101e-17
1.085976551e-17
1.075955684e-17
1.06617823e-17
1.056638113e-17
1.047329403e-17
1.038246321e-17
1.029383226e-17
1.020734624e-17
1.012295146e-17
1.004059589e-17
9.960228793e-18
9.881800479e-18
9.80526279e-18
9.730568347e-18
9.657671363e-18
9.586527168e-18
9.517092135e-18
9.449323899e-18
9.383181111e-18
9.31862336e-18
9.255611266e-18
9.194106519e-18
9.13407167e-18
9.075470312e-18
9.018267049e-18
8.962427241e-18
8.907917052e-18
8.854703709e-18
8.802755028e-18
8.75203982e-18
8.702527484e-18
8.65418843e-18
8.606993694e-18
8.560915015e-18
8.515924858e-18
8.471996316e-18
8.429103232e-18
8.387220057e-18
8.346321842e-18
8.306384489e-18
8.267384135e-18
8.229297569e-18
8.192102363e-18
8.155776491e-18
8.120298394e-18
8.085647155e-18
8.05180244e-18
8.018744293e-18
7.986453131e-18
7.954910046e-18
7.92409646e-18
7.893994203e-18
7.864585456e-18
7.835852999e-18
7.807779778e-18
7.78034934e-18
7.753545444e-18
7.727352285e-18
7.701754488e-18
7.676736875e-18
7.652284761e-18
7.628383529e-18
7.605019046e-18
7.58217743e-18
7.559845018e-18
7.538008541e-18
7.516655082e-18
7.495771847e-18
7.475346326e-18
7.455366271e-18
7.435819678e-18
7.416695018e-18
7.3979809e-18
7.3796662e-18
7.361740132e-18
7.344192176e-18
7.327012284e-18
7.310190646e-18
7.293717797e-18
7.277584612e-18
7.261782383e-18
7.246302561e-18
7.231137163e-18
7.216278251e-18
7.201718171e-18
7.085589706e-18
6.955706201e-18
6.864124075e-18
6.800249489e-18
6.757240218e-18
6.730460863e-18
6.716695946e-18
6.713695296e-18
6.719889281e-18
6.734187136e-18
6.755842145e-18
6.784357405e-18
6.819414528e-18
6.860826659e-18
6.908502544e-18
6.962421955e-18
7.022618284e-18
7.08916574e-18
7.162168956e-18
7.241757785e-18
7.32808116e-18
7.421304072e-18
7.521604612e-18
7.629170915e-18
7.744198719e-18
7.866889959e-18
7.997449473e-18
8.136083162e-18
8.282995006e-18
8.438384109e-18
8.602441265e-18
8.775345496e-18
8.957259731e-18
9.148326486e-18
9.34866311e-18
9.558356485e-18
9.777457934e-18
1.000597742e-17
1.024387784e-17
1.049106938e-17
1.074740382e-17
1.101266912e-17
1.128658454e-17
1.15687961e-17
1.185887296e-17
1.215630464e-17
1.246049948e-17
1.277078429e-17
1.308640518e-17
1.340653066e-17
1.37302555e-17
1.405660712e-17
1.438455304e-17
1.471301055e-17
1.504085752e-17
1.536694482e-17
1.569010981e-17
1.600919088e-17
1.632304261e-17
1.663055066e-17
1.693064744e-17
1.722232615e-17
1.750465497e-17
1.777678908e-17
1.803798176e-17
1.828759311e-17
1.852509703e-17
1.875008557e-17
1.896227136e-17
1.916148726e-17
1.934768403e-17
1.952092564e-17
1.96813827e-17
1.982932419e-17
1.99651077e-17
2.008916853e-17
2.020200817e-17
2.030418213e-17
2.039628771e-17
2.047895206e-17
2.055282056e-17
2.061854601e-17
2.067677866e-17
2.072815736e-17
2.077330178e-17
2.081280613e-17
2.084723386e-17
2.087711378e-17
2.090293744e-17
2.092515751e-17
2.094418735e-17
2.096040139e-17
2.097413634e-17
2.098569308e-17
2.099533895e-17
2.100331054e-17
2.100981657e-17
2.101504095e-17
2.101914576e-17
2.10222742e-17
2.102455327e-17
2.102609624e-17
2.102700475e-17
2.102737071e-17
2.102727772e-17
2.102680228e-17
2.102601464e-17
2.102497935e-17
2.102375563e-17
2.102239753e-17
2.102095394e-17
2.101946852e-17
2.101797955e-17
2.101651988e-17
2.101511678e-17
2.101379197e-17
2.10125617e-17
2.10114369e-17
2.101042348e-17
2.100952277e-17
2.100873196e-17
2.100804468e-17
2.10074517e-17
2.100694154e-17
2.100650121e-17
2.100611685e-17
2.100577443e-17
2.100546028e-17
2.100516167e-17
2.100486716e-17
2.100456703e-17
2.100425338e-17
2.100392037e-17
2.100356415e-17
2.100318286e-17
2.100277643e-17
2.100234641e-17
2.100189568e-17
2.100142819e-17
2.100094864e-17
2.100046218e-17
2.099997411e-17
2.099948963e-17
2.099901364e-17
2.09985505e-17
2.099810394e-17
2.099767697e-17
2.099727179e-17
2.099688985e-17
2.099653185e-17
2.099619782e-17
2.099588719e-17
2.099559892e-17
2.099533158e-17
2.099508349e-17
2.099485282e-17
2.099463768e-17
2.09944362e-17
2.099424662e-17
2.099406732e-17
2.099389687e-17
2.099373404e-17
2.09935778e-17
2.099342735e-17
2.099328207e-17
2.099314151e-17
2.099300539e-17
2.099287355e-17
2.099274595e-17
2.099262261e-17
2.099250367e-17
2.099238929e-17
2.099227969e-17
2.099217514e-17
2.099207594e-17
2.099198241e-17
2.09918949e-17
2.099181379e-17
2.099173947e-17
2.099167232e-17
2.099161274e-17
2.09915611e-17
2.099151776e-17
2.099148302e-17
2.099145715e-17
2.099144033e-17
2.099143267e-17
2.099143419e-17
2.099144481e-17
2.099146434e-17
2.099149249e-17
2.099152883e-17
2.099157284e-17
2.099162391e-17
2.099168131e-17
2.099174423e-17
2.099181179e-17
2.099188306e-17
2.099195705e-17
2.099203276e-17
2.099210916e-17
2.099218525e-17
2.099226003e-17
2.099233254e-17
2.099240187e-17
2.099246718e-17
2.09925277e-17
2.099258272e-17
2.099263165e-17
2.099267397e-17
2.099270927e-17
2.099273723e-17
2.099275763e-17
2.099277036e-17
2.099277538e-17
2.099277276e-17
2.099276264e-17
2.099274525e-17
2.099272087e-17
2.099268986e-17
2.09926526e-17
2.099260956e-17
2.099256119e-17
2.099250802e-17
2.099245056e-17
2.099238934e-17
2.099232491e-17
2.099225779e-17
2.099218852e-17
2.099211762e-17
2.099204557e-17
2.099197287e-17
2.099189996e-17
2.099182729e-17
2.099175525e-17
2.099168421e-17
2.099161453e-17
2.099154651e-17
2.099148042e-17
2.099141651e-17
2.099135499e-17
2.099129604e-17
2.09912398e-17
2.099118638e-17
2.099113589e-17
2.09910884e-17
2.099104405e-17
2.09910032e-17
2.099096699e-17
2.099093911e-17
)
;

boundaryField
{
    inlet
    {
        type            fixedValue;
        value           uniform 0;
    }
    outlet
    {
        type            zeroGradient;
    }
    wall
    {
        type            empty;
    }
}


// ************************************************************************* //
