/*--------------------------------*- C++ -*----------------------------------*\
  =========                 |
  \\      /  F ield         | OpenFOAM: The Open Source CFD Toolbox
   \\    /   O peration     | Website:  https://openfoam.org
    \\  /    A nd           | Version:  7
     \\/     M anipulation  |
\*---------------------------------------------------------------------------*/
FoamFile
{
    version     2.0;
    format      ascii;
    class       volScalarField;
    location    "0.000558243009";
    object      CH2(S);
}
// * * * * * * * * * * * * * * * * * * * * * * * * * * * * * * * * * * * * * //

dimensions      [0 0 0 0 0 0 0];

internalField   nonuniform List<scalar> 
1500
(
0
8.782570748e-44
2.283522417e-43
6.177204772e-42
1.18000387e-42
2.681035401e-41
0
3.866707612e-43
5.062334951e-42
6.954735718e-45
1.207845129e-42
1.114794463e-41
0
7.756316731e-42
0
0
3.249632422e-42
0
2.44131038e-42
1.361849314e-41
1.503095797e-42
4.41757843e-42
3.063848269e-43
1.388588207e-41
4.370888948e-42
4.955419228e-42
7.623711393e-42
1.175754898e-42
9.331153275e-42
0
5.627888374e-42
5.702629613e-45
0
2.019939802e-42
1.227592296e-41
1.546216196e-43
0
1.755192466e-42
0
0
2.551659736e-42
8.684926986e-42
5.156903599e-42
0
0
3.799441387e-42
4.378651672e-42
9.252983948e-43
4.224481753e-42
5.491371306e-44
1.070868125e-41
1.000955688e-41
4.210270428e-42
8.946208393e-44
1.839482907e-42
1.623164019e-41
8.39148784e-42
2.050698307e-41
1.557707567e-43
1.53500718e-44
2.110635301e-41
0
1.757082227e-41
4.600573638e-42
1.364989293e-41
3.325701265e-42
0
5.568196043e-42
4.224216044e-42
1.677631873e-42
1.608606724e-41
0
4.953158622e-45
7.306784722e-42
1.860360302e-41
2.397029472e-44
1.731774144e-41
4.583955754e-42
5.172680025e-42
0
0
1.251890298e-42
1.103899712e-42
4.306048306e-42
0
0
7.317968574e-43
6.452223459e-44
3.434481141e-46
0
1.487888602e-41
4.323763642e-43
0
0
2.013993421e-42
1.601124143e-41
0
0
2.712418683e-44
4.699081146e-42
2.827050636e-42
0
1.14113243e-41
0
0
1.842710681e-42
3.029828057e-43
7.524256523e-42
5.452820724e-42
2.055404506e-42
1.554723122e-41
2.449444835e-44
1.307149222e-42
1.360039331e-41
1.576075225e-41
0
9.230870259e-42
4.782573629e-42
1.530795546e-41
8.669012377e-42
0
1.543482854e-41
0
4.321181222e-42
4.935094186e-42
5.796376922e-42
7.596592579e-44
1.844642258e-41
1.129962718e-42
1.537699109e-41
1.938936852e-44
5.962894596e-45
4.057937501e-44
2.1855821e-41
7.034027875e-42
1.019371797e-41
4.341585252e-42
0
5.474423496e-42
4.321833333e-43
8.358747712e-42
5.20008633e-42
8.855949375e-44
9.953844469e-42
3.599645969e-44
5.111601947e-42
3.856288101e-42
3.952544885e-42
0
1.329187727e-41
1.499725087e-43
0
8.705305316e-42
0
0
8.96679575e-42
7.423709703e-43
0
1.939247612e-44
1.252928126e-42
1.053308559e-43
0
1.168745726e-42
1.763453033e-41
1.128764664e-41
4.057978381e-44
9.502492146e-42
5.487597981e-44
1.078904479e-42
6.344190649e-42
0
6.244381867e-42
0
2.578874465e-41
0
3.015194038e-42
9.163321436e-42
2.375275413e-42
0
0
2.032483069e-42
2.24678686e-42
0
0
2.837925043e-42
0
5.030191846e-42
2.676454063e-42
2.943962196e-44
1.235861653e-44
3.478670366e-42
1.964221942e-42
1.647830885e-42
5.289185025e-42
8.281034064e-42
0
7.426514761e-42
9.841796499e-42
6.364447044e-44
0
0
1.583001323e-41
2.728536831e-42
1.806703021e-44
5.405023889e-42
4.268078393e-42
7.114002936e-42
0
8.819615178e-42
1.198749545e-41
4.441231961e-42
5.589704562e-42
2.960779326e-43
5.208258163e-42
0
4.394276557e-43
0
3.51229767e-43
0
0
0
0
1.761546792e-42
3.409753367e-42
1.380644441e-44
9.955559183e-44
1.165377394e-44
1.248909021e-41
1.334482623e-41
4.664578493e-42
1.46546885e-42
2.560450316e-42
4.958540821e-42
9.138629234e-42
2.475582664e-41
9.52415494e-42
1.374678007e-41
6.681925749e-43
0
0
6.083923858e-43
8.878221158e-42
0
1.193611336e-44
6.784545438e-42
7.206138614e-43
1.168910183e-42
0
8.867828989e-44
2.253232e-42
3.487581612e-42
1.061673852e-42
4.847344134e-43
5.116391661e-43
2.82710155e-42
7.664328446e-43
6.100935657e-43
0
1.400096509e-44
1.154652973e-42
3.704839902e-43
4.780061416e-43
1.923343964e-42
8.922537589e-42
4.258072695e-42
1.404949758e-42
5.879903101e-43
1.573394313e-42
1.237356645e-42
2.499246138e-42
1.018352831e-41
5.025247537e-42
2.869309208e-42
4.394727556e-42
2.929819487e-42
9.035093295e-42
1.532958926e-42
6.409614497e-43
6.145911237e-42
3.749861007e-42
5.258005608e-42
1.184161365e-42
8.413153109e-44
0
0
0
2.457353076e-44
2.117922458e-42
2.833434475e-42
9.792538759e-42
1.316627247e-42
2.269924642e-43
4.675319069e-43
2.91177476e-42
1.17794044e-41
4.94808275e-42
1.862893212e-42
1.380578057e-42
3.970711918e-42
4.229548219e-42
1.779510347e-42
7.003367984e-42
2.959955489e-42
1.798955566e-42
1.672559143e-42
1.372619497e-42
4.159344134e-42
1.047350382e-41
1.054444522e-41
4.240078098e-42
1.608788897e-42
3.913594443e-42
1.368514324e-42
4.156744766e-42
1.347802169e-42
1.838095908e-42
4.652337994e-42
5.187396949e-42
5.99961419e-42
1.899772577e-41
5.012345906e-42
1.09171615e-42
1.732669374e-43
6.036014435e-43
2.135263911e-42
2.841002758e-42
9.17471053e-43
5.357288869e-42
1.534957942e-41
5.042516123e-42
8.796759254e-42
3.095166476e-42
1.687470905e-42
1.38895707e-42
3.865702018e-42
1.545638916e-42
2.947214778e-42
5.597423093e-42
1.710495389e-42
2.165431407e-43
1.296684624e-43
1.081900792e-42
6.167474811e-42
9.532890478e-43
4.595223928e-43
5.408847623e-42
1.390171373e-41
3.596582983e-42
1.251106456e-42
0
1.814814357e-42
2.455819378e-42
6.246077768e-42
3.513203103e-42
2.398347403e-42
7.302555502e-42
2.015126318e-41
4.371854134e-42
0
5.386563005e-43
6.931715316e-42
3.737312402e-42
1.181145598e-42
2.343877792e-42
9.934239175e-42
5.235041183e-42
4.164988175e-42
3.212495384e-42
7.292723217e-42
6.89957618e-42
6.574540407e-42
2.6015997e-42
2.29159755e-42
8.896881701e-43
2.858527947e-43
1.882347979e-43
4.393736831e-43
1.793740282e-42
7.418226418e-42
1.533628488e-42
0
6.175215057e-43
0
0
3.415982204e-42
2.342345533e-42
2.660041456e-42
8.9278343e-43
1.167647508e-42
7.053950154e-42
1.148372439e-41
1.220337309e-41
1.419307332e-41
3.116682395e-42
2.366117847e-43
0
0
0
9.267023854e-43
3.422221869e-42
6.297734375e-42
5.870885604e-42
2.663262886e-42
1.250343671e-42
7.142438464e-43
2.740712491e-43
9.255833962e-44
0
0
3.079563702e-42
1.644294452e-41
5.026666648e-42
4.465950821e-42
1.263052276e-41
3.055921277e-42
9.27603296e-43
3.43105883e-43
0
0
6.846274525e-42
2.258013421e-41
9.260908614e-42
1.280918356e-41
3.200968034e-41
1.094040295e-41
6.377803782e-42
1.191201796e-41
2.591215398e-41
8.860215541e-42
9.27113106e-42
2.495412079e-41
8.488810038e-42
2.435494812e-41
2.596001501e-41
2.980878327e-41
2.635653357e-41
2.131671664e-41
1.181588032e-41
1.898644135e-41
6.583181212e-42
1.980311047e-42
1.216058804e-42
3.410919068e-42
2.081399871e-42
8.395982771e-42
2.976155649e-42
8.416039104e-42
4.439503953e-41
1.133878172e-41
5.410049531e-42
8.588084178e-42
4.960119053e-42
1.738945594e-42
1.269756761e-42
0
0
6.398324384e-42
2.887189994e-41
8.572191349e-42
4.633369249e-42
5.180003104e-42
3.567529153e-42
1.160572794e-41
5.405211302e-41
2.034133692e-41
8.618775496e-42
4.304404979e-42
5.0399311e-42
0
3.902273182e-42
1.309035956e-41
1.489634121e-41
4.603190214e-41
8.910262772e-41
3.210926559e-41
1.492705486e-41
2.140095982e-41
2.790862842e-41
4.253581036e-41
5.302643729e-41
1.892109139e-41
1.655720796e-41
5.641089019e-41
2.562419056e-41
5.035645777e-41
4.764540909e-41
3.597668004e-41
7.533000085e-41
2.728538699e-41
3.290418144e-41
2.277325458e-41
1.114026167e-41
1.336894006e-41
3.542171389e-41
1.112390794e-40
7.980479322e-41
5.163194457e-41
4.189723319e-41
2.215733829e-41
4.437876794e-41
1.914663563e-41
1.80484852e-41
6.809407567e-41
4.786329322e-41
1.409223146e-41
1.442493393e-41
2.508687371e-41
7.425554403e-41
6.012848594e-41
4.516197579e-41
9.050184425e-41
1.208230062e-40
9.276871744e-41
3.088709942e-41
2.899350233e-41
1.200152867e-40
4.154874553e-41
7.342761604e-41
7.81312705e-41
1.536216246e-40
1.401588262e-40
5.605811749e-41
5.376065152e-41
5.634776051e-41
4.487488933e-41
1.110929261e-40
3.135984706e-41
3.553284567e-41
8.138597698e-42
3.523282806e-41
0
1.261730466e-43
1.035903756e-41
2.020301614e-41
0
0
0
2.688180352e-41
4.746584855e-41
6.482168913e-41
2.5191929e-41
4.133001245e-41
5.351707066e-41
1.093152033e-40
2.952027062e-40
2.028781301e-40
3.477189455e-40
2.180491414e-40
1.414117875e-40
2.614415642e-40
1.191159215e-40
3.272607308e-41
4.044792912e-41
6.738177633e-41
4.483095782e-41
1.566955113e-40
2.826888648e-40
7.20503297e-41
4.654287546e-41
3.78611135e-41
1.047235552e-40
6.278491621e-41
1.507548433e-40
1.566569853e-40
6.715387446e-40
1.937163856e-40
1.322373949e-40
6.64413145e-41
6.207169256e-41
9.019043009e-41
4.421386094e-40
2.295456004e-40
6.030818561e-41
8.543838688e-41
0
4.599319771e-41
5.565480056e-42
4.542075072e-41
1.96863186e-40
5.418864499e-40
6.654622402e-40
2.488201984e-40
8.6219956e-41
7.077959628e-41
2.654031068e-40
1.142843184e-39
3.353293685e-40
1.312181305e-40
2.648261101e-40
1.498966009e-40
5.071591448e-40
6.499716977e-41
0
0
2.199827687e-40
1.271168958e-39
1.509445953e-39
1.837798883e-40
0
1.309917831e-40
7.650056939e-40
2.953590507e-39
1.658630473e-39
3.430941398e-39
3.710666115e-39
6.931991858e-40
1.507542948e-40
0
0
0
2.521306743e-39
8.429942744e-39
1.486961016e-38
2.634394526e-38
2.186866065e-38
1.454202805e-38
1.678567254e-38
4.632744946e-38
5.192322431e-38
3.506899387e-38
1.13237157e-37
1.282828787e-37
1.424412117e-37
7.790724345e-38
7.203725936e-38
3.015709368e-37
1.151283397e-37
2.289407617e-37
2.239467633e-37
4.400053908e-37
4.422309585e-37
4.021002945e-37
6.625598022e-37
5.56316191e-37
1.096153789e-36
7.144867111e-37
1.866446669e-36
9.829023543e-37
4.881606518e-36
7.013060592e-36
1.784705639e-35
4.228196345e-36
4.972336762e-36
2.140998439e-35
8.149718406e-35
2.340217214e-35
6.353231095e-35
8.791661106e-35
2.101914402e-34
3.10978064e-34
4.123117286e-34
7.632973923e-34
2.717947554e-34
3.479370172e-34
4.499582355e-34
0
7.175399381e-34
3.915110326e-33
2.143731476e-35
0
0
2.936594759e-32
2.851014065e-31
1.847564579e-30
1.005659638e-29
4.900310264e-29
2.285395563e-28
1.015488677e-27
4.333722742e-27
1.785326369e-26
7.126459976e-26
2.763237237e-25
1.042711275e-24
3.834740538e-24
1.376087135e-23
4.823205389e-23
1.652734056e-22
5.541327011e-22
1.819302961e-21
5.852987178e-21
1.846219376e-20
5.712280015e-20
1.734061242e-19
5.164976529e-19
1.509219847e-18
4.324817691e-18
1.21479228e-17
3.342743149e-17
9.00542521e-17
2.373827596e-16
6.11944211e-16
1.542097018e-15
3.797720726e-15
9.138581137e-15
2.148673484e-14
4.936795087e-14
1.108667813e-13
2.434143854e-13
5.228425742e-13
1.098633213e-12
2.26260844e-12
4.567550908e-12
9.045841224e-12
1.750006303e-11
3.321956057e-11
6.186245488e-11
1.129784785e-10
2.022036616e-10
3.543201456e-10
6.074968798e-10
1.019667649e-09
1.677966245e-09
2.713681397e-09
4.324574505e-09
6.83207835e-09
1.061556474e-08
1.631578365e-08
2.478800199e-08
3.729445653e-08
5.517930184e-08
8.051163812e-08
1.157601611e-07
1.642592668e-07
2.287770606e-07
3.127732938e-07
4.188152476e-07
5.479808058e-07
6.98773592e-07
8.662726212e-07
1.042679653e-06
1.214793106e-06
1.370406363e-06
1.496686183e-06
1.584984153e-06
1.63076394e-06
1.634211063e-06
1.599245924e-06
1.532011558e-06
1.440139053e-06
1.332052011e-06
1.215075863e-06
1.095492777e-06
9.779333369e-07
8.654814791e-07
7.604057536e-07
6.64086558e-07
5.766110094e-07
4.991810859e-07
4.30415272e-07
3.693441459e-07
3.160461769e-07
2.697951687e-07
2.298417354e-07
1.954590119e-07
1.659659736e-07
1.407572527e-07
1.192326624e-07
1.009067491e-07
8.533335526e-08
7.212039797e-08
6.092556114e-08
5.145166278e-08
4.344196092e-08
3.667558392e-08
3.096320919e-08
2.614306526e-08
2.20772959e-08
1.864869799e-08
1.575782653e-08
1.33204487e-08
1.126532126e-08
9.532261984e-09
8.070485647e-09
6.83717392e-09
5.796251163e-09
4.917339905e-09
4.174872035e-09
3.547334303e-09
3.016629125e-09
2.567534044e-09
2.187245282e-09
1.864992816e-09
1.591716108e-09
1.359791194e-09
1.16280116e-09
9.953432339e-10
8.528667319e-10
7.315369681e-10
6.281210086e-10
5.398917729e-10
4.645475468e-10
4.001444276e-10
3.450396225e-10
2.978438471e-10
2.573813563e-10
2.226563758e-10
1.928248977e-10
1.671709767e-10
1.45086798e-10
1.260559109e-10
1.096391167e-10
9.546258442e-11
8.320783741e-11
7.260331048e-11
6.341722676e-11
5.545158408e-11
4.853707428e-11
4.25287877e-11
3.73025788e-11
3.27519887e-11
2.878563729e-11
2.532501155e-11
2.230258817e-11
1.966023881e-11
1.734787417e-11
1.532229014e-11
1.354618511e-11
1.198732227e-11
1.061781486e-11
9.413515859e-12
8.353496286e-12
7.419598925e-12
6.59605617e-12
5.86916251e-12
5.226993575e-12
4.659164902e-12
4.156624618e-12
3.711475111e-12
3.316819492e-12
2.966629281e-12
2.655630277e-12
2.379204036e-12
2.133302723e-12
1.914375477e-12
1.719304665e-12
1.545350645e-12
1.390103868e-12
1.251443298e-12
1.127500295e-12
1.016627201e-12
9.173700087e-13
8.28444553e-13
7.487157514e-13
6.771794939e-13
6.129468272e-13
5.552301307e-13
5.033310245e-13
4.566297834e-13
4.145760614e-13
3.766807579e-13
3.425088801e-13
3.116732727e-13
2.83829108e-13
2.586690376e-13
2.359189244e-13
2.153340827e-13
1.966959626e-13
1.798092244e-13
1.644991555e-13
1.506093872e-13
1.379998761e-13
1.265451174e-13
1.161325627e-13
1.066612174e-13
9.804039743e-14
9.018862552e-14
8.303265087e-14
7.650657817e-14
7.055109298e-14
6.511277238e-14
6.014347116e-14
5.559977484e-14
5.144251203e-14
4.763631932e-14
4.414925287e-14
4.095244137e-14
3.801977594e-14
3.532763266e-14
3.285462434e-14
3.058137815e-14
2.849033647e-14
2.656557823e-14
2.479265872e-14
2.315846577e-14
2.165109064e-14
2.025971191e-14
1.897449114e-14
1.778647904e-14
1.668753093e-14
1.567023069e-14
1.472782215e-14
1.385414734e-14
1.30435907e-14
1.229102875e-14
1.159178471e-14
1.094158742e-14
1.033653424e-14
9.773057539e-15
9.24789433e-15
8.758058797e-15
8.300817415e-15
7.87366642e-15
7.474311377e-15
7.100648653e-15
6.750748601e-15
6.422840304e-15
6.115297723e-15
5.826627104e-15
5.555455535e-15
5.300520549e-15
5.060660648e-15
4.834806699e-15
4.621974089e-15
4.421255574e-15
4.231814782e-15
4.052880271e-15
3.883740116e-15
3.723736979e-15
3.572263595e-15
3.428758663e-15
3.292703081e-15
3.163616515e-15
3.041054261e-15
2.92460437e-15
2.813885022e-15
2.708542125e-15
2.608247111e-15
2.512694917e-15
2.421602144e-15
2.334705357e-15
2.251759534e-15
2.172536649e-15
2.096824353e-15
2.024424783e-15
1.955153457e-15
1.88883826e-15
1.825318519e-15
1.764444142e-15
1.706074837e-15
1.650079381e-15
1.596334961e-15
1.544726552e-15
1.495146366e-15
1.447493315e-15
1.401672542e-15
1.357594975e-15
1.315176915e-15
1.274339668e-15
1.23500919e-15
1.197115766e-15
1.160593712e-15
1.125381109e-15
1.091419539e-15
1.058653854e-15
1.027031959e-15
9.96504609e-16
9.670252256e-16
9.38549721e-16
9.110363387e-16
8.844455046e-16
8.587396885e-16
8.338832787e-16
8.098424617e-16
7.865851105e-16
7.640806827e-16
7.423001238e-16
7.212157776e-16
7.008013077e-16
6.810316149e-16
6.618827697e-16
6.433319418e-16
6.253573402e-16
6.079381524e-16
5.910544909e-16
5.746873426e-16
5.588185208e-16
5.434306206e-16
5.285069766e-16
5.14031625e-16
4.999892667e-16
4.863652309e-16
4.731454469e-16
4.6031641e-16
4.47865156e-16
4.35779232e-16
4.24046674e-16
4.126559794e-16
4.015960902e-16
3.908563677e-16
3.804265742e-16
3.702968551e-16
3.604577202e-16
3.509000278e-16
3.416149702e-16
3.325940567e-16
3.238291013e-16
3.153122078e-16
3.070357601e-16
2.989924082e-16
2.911750569e-16
2.835768557e-16
2.761911884e-16
2.690116646e-16
2.620321089e-16
2.552465538e-16
2.486492305e-16
2.422345632e-16
2.359971572e-16
2.299317955e-16
2.240334315e-16
2.182971812e-16
2.127183187e-16
2.072922683e-16
2.020146002e-16
1.968810269e-16
1.91887395e-16
1.870296812e-16
1.823039884e-16
1.777065402e-16
1.732336782e-16
1.688818569e-16
1.646476386e-16
1.60527691e-16
1.565187839e-16
1.526177854e-16
1.488216577e-16
1.451274552e-16
1.415323198e-16
1.380334798e-16
1.346282456e-16
1.313140084e-16
1.280882356e-16
1.249484702e-16
1.21892327e-16
1.189174916e-16
1.160217176e-16
1.132028236e-16
1.104586918e-16
1.077872654e-16
1.051865481e-16
1.026546012e-16
1.001895421e-16
9.778954149e-17
9.545282365e-17
9.317766264e-17
9.096238216e-17
8.880535447e-17
8.670499741e-17
8.465977368e-17
8.266818967e-17
8.072879432e-17
7.884017731e-17
7.700096759e-17
7.520983352e-17
7.346548025e-17
7.176664983e-17
7.01121186e-17
6.850069765e-17
6.693123119e-17
6.540259553e-17
6.391369845e-17
6.246347733e-17
6.105089992e-17
5.967496171e-17
5.833468639e-17
5.702912443e-17
5.575735237e-17
5.451847243e-17
5.331161121e-17
5.213591955e-17
5.099057145e-17
4.987476348e-17
4.878771388e-17
4.772866272e-17
4.66968703e-17
4.569161736e-17
4.471220437e-17
4.37579505e-17
4.282819343e-17
4.192228893e-17
4.103960989e-17
4.017954648e-17
3.934150518e-17
3.852490882e-17
3.772919496e-17
3.695381712e-17
3.619824291e-17
3.546195492e-17
3.474444905e-17
3.404523536e-17
3.336383652e-17
3.269978808e-17
3.205263789e-17
3.142194586e-17
3.080728411e-17
3.020823544e-17
2.962439438e-17
2.905536638e-17
2.850076666e-17
2.796022142e-17
2.74333661e-17
2.691984625e-17
2.64193166e-17
2.593144145e-17
2.545589358e-17
2.499235419e-17
2.454051328e-17
2.410006926e-17
2.36707279e-17
2.325220313e-17
2.284421644e-17
2.244649662e-17
2.205877914e-17
2.168080702e-17
2.131232962e-17
2.095310326e-17
2.060289054e-17
2.026146013e-17
1.992858668e-17
1.960405107e-17
1.92876396e-17
1.897914435e-17
1.867836254e-17
1.838509729e-17
1.809915624e-17
1.782035227e-17
1.754850319e-17
1.728343156e-17
1.702496444e-17
1.677293369e-17
1.652717481e-17
1.628752835e-17
1.605383864e-17
1.582595425e-17
1.560372748e-17
1.538701454e-17
1.517567515e-17
1.496957302e-17
1.476857539e-17
1.457255274e-17
1.438137861e-17
1.419493035e-17
1.401308821e-17
1.383573555e-17
1.366275886e-17
1.34940475e-17
1.332949362e-17
1.316899219e-17
1.301244066e-17
1.285973937e-17
1.271079131e-17
1.256550183e-17
1.242377834e-17
1.228553145e-17
1.215067327e-17
1.201911862e-17
1.189078435e-17
1.176558942e-17
1.164345503e-17
1.152430428e-17
1.140806213e-17
1.129465562e-17
1.118401359e-17
1.107606662e-17
1.097074734e-17
1.086799005e-17
1.076773044e-17
1.066990596e-17
1.057445577e-17
1.048132051e-17
1.039044231e-17
1.030176463e-17
1.021523279e-17
1.013079307e-17
1.004839327e-17
9.967982682e-18
9.889511692e-18
9.812931997e-18
9.73819642e-18
9.665258994e-18
9.594075052e-18
9.524601046e-18
9.456794521e-18
9.390614172e-18
9.326019682e-18
9.262971555e-18
9.201431319e-18
9.141361752e-18
9.082726303e-18
9.025489517e-18
8.969616798e-18
8.915074375e-18
8.861829464e-18
8.809849909e-18
8.759104393e-18
8.709562346e-18
8.661194161e-18
8.613970877e-18
8.567864217e-18
8.522846601e-18
8.478891243e-18
8.435971844e-18
8.394062986e-18
8.353139645e-18
8.313177577e-18
8.27415297e-18
8.236042738e-18
8.198824269e-18
8.162475544e-18
8.126975025e-18
8.092301961e-18
8.058435842e-18
8.025356645e-18
7.993044931e-18
7.961481651e-18
7.93064811e-18
7.900526324e-18
7.871098549e-18
7.84234741e-18
7.814256003e-18
7.786807771e-18
7.759986538e-18
7.733776424e-18
7.708161981e-18
7.683128096e-18
7.658659976e-18
7.634743199e-18
7.611363472e-18
7.588506955e-18
7.566159978e-18
7.544309263e-18
7.52294187e-18
7.502044889e-18
7.481605826e-18
7.461612521e-18
7.442052906e-18
7.42291518e-18
7.404187808e-18
7.385859542e-18
7.36791935e-18
7.350356304e-18
7.333159868e-18
7.316319677e-18
7.29982564e-18
7.283667906e-18
7.2678367e-18
7.252322678e-18
7.237116844e-18
7.222210459e-18
7.207595458e-18
7.090965231e-18
6.960583992e-18
6.868292719e-18
6.803730965e-18
6.760072866e-18
6.732678207e-18
6.718329458e-18
6.71477599e-18
6.720445584e-18
6.734247407e-18
6.755435503e-18
6.783512052e-18
6.81815937e-18
6.859190212e-18
6.906513945e-18
6.960109634e-18
7.020009928e-18
7.086288642e-18
7.159049332e-18
7.238420966e-18
7.324551067e-18
7.417603004e-18
7.517753466e-18
7.625188728e-18
7.740102656e-18
7.8626951e-18
7.993169014e-18
8.131728201e-18
8.278574552e-18
8.433905123e-18
8.59790877e-18
8.770762577e-18
8.952627701e-18
9.143645011e-18
9.343930382e-18
9.553569453e-18
9.772612487e-18
1.000106865e-17
1.023890032e-17
1.048601741e-17
1.074227179e-17
1.100745174e-17
1.128127718e-17
1.156339507e-17
1.185337577e-17
1.215071034e-17
1.245480875e-17
1.276499974e-17
1.308053149e-17
1.340057459e-17
1.372422614e-17
1.405051558e-17
1.437841271e-17
1.470683679e-17
1.503466749e-17
1.53607573e-17
1.568394498e-17
1.600306991e-17
1.631698731e-17
1.66245832e-17
1.692478991e-17
1.72166002e-17
1.749908141e-17
1.777138757e-17
1.803277048e-17
1.828258845e-17
1.852031333e-17
1.8745535e-17
1.895796369e-17
1.915742982e-17
1.934388164e-17
1.951738065e-17
1.967809506e-17
1.982629152e-17
1.996232548e-17
2.008663029e-17
2.019970565e-17
2.030210555e-17
2.039442603e-17
2.04772932e-17
2.055135168e-17
2.061725376e-17
2.06756494e-17
2.072717738e-17
2.077245754e-17
2.08120844e-17
2.084662188e-17
2.087659943e-17
2.09025093e-17
2.092480496e-17
2.09439006e-17
2.096017152e-17
2.097395535e-17
2.098555379e-17
2.099523506e-17
2.100323652e-17
2.100976765e-17
2.101501302e-17
2.101913535e-17
2.102227839e-17
2.102456961e-17
2.102612268e-17
2.102703961e-17
2.102741259e-17
2.102732545e-17
2.10268549e-17
2.102607132e-17
2.102503938e-17
2.102381839e-17
2.102246249e-17
2.10210206e-17
2.101953643e-17
2.101804831e-17
2.101658911e-17
2.101518615e-17
2.101386118e-17
2.101263048e-17
2.1011505e-17
2.101049072e-17
2.100958898e-17
2.1008797e-17
2.100810846e-17
2.100751416e-17
2.100700264e-17
2.100656092e-17
2.100617518e-17
2.100583138e-17
2.100551588e-17
2.100521592e-17
2.100492009e-17
2.100461863e-17
2.100430367e-17
2.100396932e-17
2.100361174e-17
2.100322905e-17
2.100282116e-17
2.100238962e-17
2.100193731e-17
2.100146815e-17
2.100098686e-17
2.100049856e-17
2.100000858e-17
2.099952213e-17
2.099904408e-17
2.099857884e-17
2.099813013e-17
2.099770096e-17
2.099729357e-17
2.099690941e-17
2.099654919e-17
2.099621295e-17
2.099590013e-17
2.09956097e-17
2.099534025e-17
2.09950901e-17
2.099485743e-17
2.099464034e-17
2.099443698e-17
2.099424559e-17
2.099406455e-17
2.099389244e-17
2.099372801e-17
2.099357027e-17
2.099341838e-17
2.099327175e-17
2.099312993e-17
2.099299262e-17
2.099285968e-17
2.099273106e-17
2.09926068e-17
2.099248701e-17
2.099237186e-17
2.099226159e-17
2.099215644e-17
2.099205671e-17
2.099196272e-17
2.099187483e-17
2.09917934e-17
2.09917188e-17
2.099165144e-17
2.099159168e-17
2.09915399e-17
2.099149644e-17
2.099146161e-17
2.099143565e-17
2.099141875e-17
2.099141102e-17
2.099141245e-17
2.099142297e-17
2.099144238e-17
2.099147037e-17
2.099150653e-17
2.099155032e-17
2.099160113e-17
2.099165822e-17
2.099172079e-17
2.099178796e-17
2.099185878e-17
2.099193229e-17
2.099200746e-17
2.099208328e-17
2.099215875e-17
2.099223287e-17
2.099230469e-17
2.099237332e-17
2.099243791e-17
2.09924977e-17
2.099255199e-17
2.099260021e-17
2.099264184e-17
2.099267648e-17
2.099270383e-17
2.099272368e-17
2.099273592e-17
2.099274054e-17
2.099273762e-17
2.09927273e-17
2.099270982e-17
2.099268548e-17
2.099265463e-17
2.099261768e-17
2.099257509e-17
2.099252734e-17
2.099247493e-17
2.099241838e-17
2.099235824e-17
2.099229505e-17
2.099222932e-17
2.099216159e-17
2.099209238e-17
2.099202216e-17
2.099195142e-17
2.099188061e-17
2.099181014e-17
2.099174041e-17
2.099167177e-17
2.099160457e-17
2.099153909e-17
2.09914756e-17
2.099141433e-17
2.099135547e-17
2.099129919e-17
2.09912456e-17
2.099119482e-17
2.099114692e-17
2.099110196e-17
2.099106008e-17
2.099102162e-17
2.099098769e-17
2.099096197e-17
)
;

boundaryField
{
    inlet
    {
        type            fixedValue;
        value           uniform 0;
    }
    outlet
    {
        type            zeroGradient;
    }
    wall
    {
        type            empty;
    }
}


// ************************************************************************* //
