/*--------------------------------*- C++ -*----------------------------------*\
  =========                 |
  \\      /  F ield         | OpenFOAM: The Open Source CFD Toolbox
   \\    /   O peration     | Website:  https://openfoam.org
    \\  /    A nd           | Version:  7
     \\/     M anipulation  |
\*---------------------------------------------------------------------------*/
FoamFile
{
    version     2.0;
    format      ascii;
    class       volScalarField;
    location    "0.000558243009";
    object      CH2CHO;
}
// * * * * * * * * * * * * * * * * * * * * * * * * * * * * * * * * * * * * * //

dimensions      [0 0 0 0 0 0 0];

internalField   nonuniform List<scalar> 
1500
(
1.56305137e-27
1.472491432e-27
1.306503427e-27
1.154870067e-27
1.048356222e-27
9.850696767e-28
9.518892751e-28
9.362940863e-28
9.296695656e-28
9.270877668e-28
9.261212901e-28
9.257268803e-28
9.255133632e-28
9.253553399e-28
9.252214061e-28
9.251072028e-28
9.250129545e-28
9.249376799e-28
9.248788944e-28
9.248336249e-28
9.247992867e-28
9.247740565e-28
9.247568029e-28
9.247467792e-28
9.247432806e-28
9.247454042e-28
9.247519662e-28
9.247615589e-28
9.247726929e-28
9.247839626e-28
9.247941828e-28
9.248024689e-28
9.248082566e-28
9.248112737e-28
9.248114848e-28
9.248090291e-28
9.248041638e-28
9.247972199e-28
9.247885709e-28
9.247786129e-28
9.247677494e-28
9.247563769e-28
9.247448694e-28
9.247335603e-28
9.247227257e-28
9.247125715e-28
9.247032263e-28
9.246947423e-28
9.246871036e-28
9.246802401e-28
9.246740452e-28
9.246683948e-28
9.246631645e-28
9.246582447e-28
9.246535512e-28
9.246490318e-28
9.246446689e-28
9.246404793e-28
9.246365104e-28
9.246328357e-28
9.246295483e-28
9.246267552e-28
9.246245705e-28
9.246231092e-28
9.246224809e-28
9.246227842e-28
9.246241004e-28
9.24626489e-28
9.246299827e-28
9.246345844e-28
9.246402644e-28
9.246469598e-28
9.246545745e-28
9.246629814e-28
9.246720255e-28
9.246815284e-28
9.246912939e-28
9.247011141e-28
9.247107756e-28
9.247200666e-28
9.247287827e-28
9.247367332e-28
9.247437458e-28
9.247496716e-28
9.247543884e-28
9.247578029e-28
9.247598531e-28
9.247605077e-28
9.24759767e-28
9.247576613e-28
9.247542496e-28
9.247496176e-28
9.247438753e-28
9.247371534e-28
9.247296e-28
9.247213768e-28
9.247126543e-28
9.247036074e-28
9.246944106e-28
9.246852329e-28
9.246762337e-28
9.246675575e-28
9.246593306e-28
9.246516566e-28
9.24644615e-28
9.246382581e-28
9.246326114e-28
9.246276735e-28
9.246234177e-28
9.246197953e-28
9.246167385e-28
9.246141656e-28
9.246119855e-28
9.246101028e-28
9.246084232e-28
9.246068583e-28
9.246053293e-28
9.246037706e-28
9.246021318e-28
9.246003792e-28
9.245984958e-28
9.245964802e-28
9.24594345e-28
9.245921147e-28
9.245898224e-28
9.245875072e-28
9.245852115e-28
9.245829778e-28
9.245808472e-28
9.245788575e-28
9.245770425e-28
9.245754315e-28
9.2457405e-28
9.2457292e-28
9.245720616e-28
9.245714936e-28
9.245712355e-28
9.245713078e-28
9.245717331e-28
9.245725365e-28
9.245737452e-28
9.245753882e-28
9.245774947e-28
9.245800931e-28
9.245832089e-28
9.24586863e-28
9.245910698e-28
9.245958351e-28
9.24601155e-28
9.246070143e-28
9.246133863e-28
9.246202321e-28
9.246275017e-28
9.246351341e-28
9.246430593e-28
9.246511997e-28
9.246594722e-28
9.246677906e-28
9.246760672e-28
9.246842157e-28
9.246921519e-28
9.246997964e-28
9.247070748e-28
9.247139188e-28
9.247202664e-28
9.247260617e-28
9.247312549e-28
9.247358015e-28
9.247396615e-28
9.247427996e-28
9.247451841e-28
9.247467872e-28
9.247475853e-28
9.247475589e-28
9.247466944e-28
9.247449846e-28
9.247424302e-28
9.247390419e-28
9.247348418e-28
9.247298655e-28
9.247241643e-28
9.24717807e-28
9.247108817e-28
9.247034969e-28
9.246957831e-28
9.246878917e-28
9.246799943e-28
9.246722794e-28
9.246649483e-28
9.246582087e-28
9.246522665e-28
9.246473177e-28
9.246435382e-28
9.246410753e-28
9.2464004e-28
9.246405023e-28
9.246424892e-28
9.246459873e-28
9.246509487e-28
9.246573007e-28
9.246649565e-28
9.246738277e-28
9.246838326e-28
9.246949021e-28
9.247069774e-28
9.247200019e-28
9.247339043e-28
9.247485756e-28
9.24763844e-28
9.247794503e-28
9.247950302e-28
9.248101101e-28
9.248241214e-28
9.248364363e-28
9.248464288e-28
9.24853557e-28
9.248574616e-28
9.248580712e-28
9.248557002e-28
9.248511232e-28
9.248456103e-28
9.248409064e-28
9.248391444e-28
9.248426859e-28
9.248538932e-28
9.248748448e-28
9.249070177e-28
9.249509694e-28
9.250060584e-28
9.250702475e-28
9.251400333e-28
9.252105392e-28
9.252757971e-28
9.253292274e-28
9.253643034e-28
9.253753641e-28
9.253585131e-28
9.253125184e-28
9.252396119e-28
9.251460775e-28
9.250425196e-28
9.24943717e-28
9.248680108e-28
9.248362193e-28
9.248702142e-28
9.249913522e-28
9.252190313e-28
9.25568199e-28
9.260397372e-28
9.265788678e-28
9.26763429e-28
9.26813173e-28
9.268625977e-28
9.269124552e-28
9.269629883e-28
9.27014276e-28
9.270663476e-28
9.271192191e-28
9.271729037e-28
9.272274144e-28
9.272827643e-28
9.273389668e-28
9.273960354e-28
9.274539842e-28
9.275128277e-28
9.275725813e-28
9.27633261e-28
9.27694884e-28
9.277574685e-28
9.278210337e-28
9.278856e-28
9.279511891e-28
9.280178241e-28
9.280855294e-28
9.28154331e-28
9.282242562e-28
9.282953345e-28
9.283675967e-28
9.284410759e-28
9.285158071e-28
9.285918274e-28
9.286691763e-28
9.287478958e-28
9.288280305e-28
9.289096276e-28
9.289927376e-28
9.290774138e-28
9.291637132e-28
9.292516961e-28
9.293414268e-28
9.294329735e-28
9.295264089e-28
9.296218102e-28
9.297192595e-28
9.298188441e-28
9.299206569e-28
9.30024797e-28
9.301313694e-28
9.302404861e-28
9.303522665e-28
9.304668375e-28
9.305843341e-28
9.307049005e-28
9.308286899e-28
9.309558658e-28
9.310866023e-28
9.31221085e-28
9.313595118e-28
9.315020936e-28
9.316490555e-28
9.318006374e-28
9.319570954e-28
9.321187025e-28
9.322857504e-28
9.324585502e-28
9.326374341e-28
9.328227568e-28
9.330148969e-28
9.332142589e-28
9.334212749e-28
9.336364063e-28
9.33860146e-28
9.34093021e-28
9.343355938e-28
9.34588466e-28
9.348522801e-28
9.351277228e-28
9.354155279e-28
9.357164797e-28
9.36031416e-28
9.363612324e-28
9.367068855e-28
9.370693975e-28
9.374498604e-28
9.378494408e-28
9.382693845e-28
9.387110219e-28
9.391757737e-28
9.396651565e-28
9.401807887e-28
9.407243978e-28
9.412978263e-28
9.419030396e-28
9.425421334e-28
9.432173416e-28
9.439310447e-28
9.446857789e-28
9.454842448e-28
9.463293177e-28
9.472240573e-28
9.481717184e-28
9.491757621e-28
9.50239867e-28
9.513679415e-28
9.525641363e-28
9.538328571e-28
9.551787782e-28
9.566068566e-28
9.581223464e-28
9.597308134e-28
9.614381508e-28
9.632505953e-28
9.651747428e-28
9.672175658e-28
9.693864303e-28
9.716891134e-28
9.741338214e-28
9.767292084e-28
9.794843946e-28
9.824089858e-28
9.855130923e-28
9.888073487e-28
9.923029337e-28
9.960115897e-28
9.999456432e-28
1.004118025e-27
1.008542288e-27
1.013232633e-27
1.018203921e-27
1.023471697e-27
1.029052212e-27
1.034962435e-27
1.041220078e-27
1.047843611e-27
1.054852281e-27
1.062266127e-27
1.070105998e-27
1.078393569e-27
1.087151351e-27
1.096402709e-27
1.106171872e-27
1.116483945e-27
1.127364915e-27
1.138841665e-27
1.150941975e-27
1.16369453e-27
1.177128923e-27
1.191275655e-27
1.206166135e-27
1.221832678e-27
1.238308498e-27
1.255627704e-27
1.273825289e-27
1.292937119e-27
1.312999917e-27
1.33405125e-27
1.356129505e-27
1.379273874e-27
1.403524321e-27
1.428921561e-27
1.45550703e-27
1.483322849e-27
1.51241179e-27
1.542817239e-27
1.574583154e-27
1.607754022e-27
1.642374811e-27
1.678490926e-27
1.716148149e-27
1.755392593e-27
1.796270642e-27
1.838828893e-27
1.883114094e-27
1.929173082e-27
1.977052718e-27
2.02679982e-27
2.078461094e-27
2.132083064e-27
2.187712003e-27
2.245393859e-27
2.305174179e-27
2.367098041e-27
2.431209974e-27
2.497553888e-27
2.566172997e-27
2.637109745e-27
2.710405732e-27
2.786101643e-27
2.864237174e-27
2.944850964e-27
3.027980523e-27
3.113662169e-27
3.20193096e-27
3.292820636e-27
3.386363555e-27
3.482590642e-27
3.581531332e-27
3.683213525e-27
3.787663536e-27
3.894906061e-27
4.004964137e-27
4.117859111e-27
4.233610614e-27
4.352236544e-27
4.473753045e-27
4.598174504e-27
4.725513546e-27
4.855781038e-27
4.988986098e-27
5.125136118e-27
5.264236781e-27
5.406292101e-27
5.551304459e-27
5.69927465e-27
5.850201944e-27
6.004084143e-27
6.160917661e-27
6.320697601e-27
6.48341785e-27
6.649071174e-27
6.81764933e-27
6.989143184e-27
7.16354284e-27
7.340837777e-27
7.521017001e-27
7.7040692e-27
7.889982915e-27
8.078746722e-27
8.27034942e-27
8.464780237e-27
8.662029042e-27
8.862086571e-27
9.064944666e-27
9.270596521e-27
9.479036951e-27
9.690262659e-27
9.904272532e-27
1.012106794e-26
1.034065303e-26
1.056303511e-26
1.078822493e-26
1.101623707e-26
1.124709031e-26
1.148080803e-26
1.171741856e-26
1.195695569e-26
1.219945902e-26
1.244497445e-26
1.269355466e-26
1.294525956e-26
1.320015683e-26
1.345832243e-26
1.371984114e-26
1.398480711e-26
1.425332446e-26
1.452550787e-26
1.48014832e-26
1.508138816e-26
1.536537307e-26
1.565360182e-26
1.594625354e-26
1.62435255e-26
1.654563611e-26
1.685281933e-26
1.716531681e-26
1.748339105e-26
1.780731965e-26
1.813736796e-26
1.84738299e-26
1.881703242e-26
1.916732997e-26
1.952510193e-26
1.989075229e-26
2.026471056e-26
2.064743299e-26
2.103940534e-26
2.144114954e-26
2.185323651e-26
2.227628206e-26
2.271087515e-26
2.315764078e-26
2.361725881e-26
2.409045515e-26
2.457798122e-26
2.508061038e-26
2.559915313e-26
2.613446615e-26
2.668745261e-26
2.725906153e-26
2.785028818e-26
2.846217523e-26
2.909581425e-26
2.975234741e-26
3.043296923e-26
3.113892848e-26
3.187153008e-26
3.263213713e-26
3.342217303e-26
3.424312362e-26
3.509653951e-26
3.598403846e-26
3.690730786e-26
3.786810744e-26
3.886827192e-26
3.990971401e-26
4.099442741e-26
4.212449006e-26
4.330206751e-26
4.452941653e-26
4.580888892e-26
4.714293546e-26
4.853411022e-26
4.998507506e-26
5.149860434e-26
5.307759008e-26
5.47250473e-26
5.644411976e-26
5.823808608e-26
6.011036626e-26
6.206452862e-26
6.41042973e-26
6.623356022e-26
6.845637773e-26
7.077699187e-26
7.319983652e-26
7.572954836e-26
7.83709789e-26
8.112920786e-26
8.400955787e-26
8.701761111e-26
9.015922806e-26
9.3440569e-26
9.686811883e-26
1.004487161e-25
1.041895875e-25
1.080983887e-25
1.121832544e-25
1.164528588e-25
1.209164908e-25
1.255841473e-25
1.304666501e-25
1.355757935e-25
1.409245323e-25
1.46527221e-25
1.523999206e-25
1.585607933e-25
1.650306114e-25
1.718334159e-25
1.789973687e-25
1.865558592e-25
1.94548943e-25
2.030252121e-25
2.120442311e-25
2.216797126e-25
2.320236563e-25
2.431917518e-25
2.553304295e-25
2.686260699e-25
2.833170347e-25
2.997093908e-25
3.181974676e-25
3.392907422e-25
3.636490124e-25
3.921284286e-25
4.258417591e-25
4.662373203e-25
5.152023975e-25
5.751988174e-25
6.494407571e-25
7.421280805e-25
8.587527318e-25
1.006501338e-24
1.19478464e-24
1.435934293e-24
1.746120839e-24
2.146564323e-24
2.665132748e-24
3.338455414e-24
4.21472108e-24
5.357388952e-24
6.850119207e-24
8.803337062e-24
1.136299111e-23
1.472226842e-23
1.913730736e-23
2.4948336e-23
3.260820408e-23
4.272103507e-23
5.609479801e-23
7.381312541e-23
9.733389358e-23
1.28625245e-22
1.703543404e-22
2.261508978e-22
3.009776098e-22
4.016545484e-22
5.376073619e-22
7.219436584e-22
9.730152091e-22
1.316706559e-21
1.789821397e-21
2.445146098e-21
3.359104562e-21
4.643463068e-21
6.463440426e-21
9.06607163e-21
1.282518935e-20
1.831368093e-20
2.642109794e-20
3.854768744e-20
5.69289804e-20
8.518660011e-20
1.292768138e-19
1.991489998e-19
3.11690794e-19
4.960421182e-19
8.033394853e-19
1.324877112e-18
2.226507164e-18
3.81484417e-18
6.666653228e-18
1.188544197e-17
2.161723637e-17
4.00999227e-17
7.581983097e-17
1.459772497e-16
2.857696312e-16
5.67676071e-16
1.141249301e-15
2.314082449e-15
4.712951986e-15
9.595046491e-15
1.942827715e-14
3.893833676e-14
7.696727214e-14
1.498227802e-13
2.875667734e-13
5.461898638e-13
1.031137218e-12
1.942651059e-12
3.66518403e-12
6.94645435e-12
1.325406934e-11
2.547850697e-11
4.929984173e-11
9.578329686e-11
1.861366992e-10
3.599898088e-10
6.893679328e-10
1.29898903e-09
2.401413783e-09
4.335368843e-09
7.62650182e-09
1.297606711e-08
2.138724897e-08
3.42626164e-08
5.331078035e-08
8.042114396e-08
1.175078931e-07
1.664916182e-07
2.297620155e-07
3.107425495e-07
4.142916924e-07
5.470934091e-07
7.196868056e-07
9.336551843e-07
1.194973163e-06
1.499117325e-06
1.834777884e-06
2.165352992e-06
2.457113491e-06
2.673953576e-06
2.800298142e-06
2.820685749e-06
2.740766763e-06
2.578756567e-06
2.358971196e-06
2.105589849e-06
1.839772746e-06
1.576307499e-06
1.329895635e-06
1.104749367e-06
9.070627166e-07
7.367683247e-07
5.929931271e-07
4.736663852e-07
3.760358172e-07
2.96255224e-07
2.318448114e-07
1.806763651e-07
1.403103587e-07
1.08677022e-07
8.400747704e-08
6.482364099e-08
4.99535245e-08
3.845920509e-08
2.957350254e-08
2.284126722e-08
1.76457162e-08
1.359085954e-08
1.047552496e-08
8.081612425e-09
6.240853453e-09
4.824242432e-09
3.733070819e-09
2.892750777e-09
2.243697759e-09
1.742466307e-09
1.355025257e-09
1.055239147e-09
8.230244201e-10
6.429398634e-10
5.031072487e-10
3.943839838e-10
3.097286051e-10
2.43714025e-10
1.921540663e-10
1.518168651e-10
1.202048961e-10
9.538608425e-11
7.586409316e-11
6.047864909e-11
4.832891451e-11
3.871453238e-11
3.109023659e-11
2.503087817e-11
2.020445233e-11
1.635127561e-11
1.326789406e-11
1.07946336e-11
8.80595693e-12
7.202984967e-12
5.907689525e-12
4.858377614e-12
4.006175201e-12
3.312285235e-12
2.74584624e-12
2.282257349e-12
1.901866089e-12
1.588938676e-12
1.330850633e-12
1.117449498e-12
9.405521462e-13
7.935475721e-13
6.710824277e-13
5.688116104e-13
4.832000603e-13
4.113649456e-13
3.509497566e-13
3.000236525e-13
2.570008313e-13
2.205758058e-13
1.896713375e-13
1.633964644e-13
1.410125931e-13
1.21906047e-13
1.055657916e-13
9.156532303e-14
7.954790796e-14
6.921452886e-14
6.031401733e-14
5.263496059e-14
4.599904791e-14
4.025558912e-14
3.527698891e-14
3.09550024e-14
2.719763048e-14
2.392654034e-14
2.107491781e-14
1.858567573e-14
1.640995628e-14
1.450587654e-14
1.28374758e-14
1.137383052e-14
1.008830874e-14
8.957940986e-15
7.96288836e-15
7.08599215e-15
6.312391719e-15
5.629199816e-15
5.025226254e-15
4.49074232e-15
4.017279648e-15
3.597458229e-15
3.224839119e-15
2.89379813e-15
2.59941734e-15
2.337391809e-15
2.103949229e-15
1.895780646e-15
1.709980656e-15
1.54399569e-15
1.395579265e-15
1.262753202e-15
1.143773988e-15
1.037103552e-15
9.413838605e-16
8.554148049e-16
7.781349345e-16
7.086046469e-16
6.459915193e-16
5.895574829e-16
5.386476037e-16
4.92680266e-16
4.511385574e-16
4.135627213e-16
3.795435265e-16
3.487164439e-16
3.207565191e-16
2.953738656e-16
2.723096923e-16
2.513328006e-16
2.322364974e-16
2.148358646e-16
1.989653472e-16
1.844766243e-16
1.71236721e-16
1.591263387e-16
1.48038374e-16
1.378766053e-16
1.285545302e-16
1.199943276e-16
1.121259397e-16
1.04886255e-16
9.821838043e-17
9.207099285e-17
8.639776235e-17
8.115683892e-17
7.631039251e-17
7.182420294e-17
6.766729451e-17
6.381160979e-17
6.023171572e-17
5.690454233e-17
5.380914959e-17
5.092651661e-17
4.823935357e-17
4.57319333e-17
4.338993916e-17
4.120033041e-17
3.915121773e-17
3.723175652e-17
3.543204608e-17
3.374304068e-17
3.215647026e-17
3.066476829e-17
2.926100651e-17
2.793883604e-17
2.669243486e-17
2.551645992e-17
2.440600374e-17
2.335655578e-17
2.236396679e-17
2.142441704e-17
2.053438731e-17
1.969063257e-17
1.889015851e-17
1.813019942e-17
1.740819936e-17
1.672179393e-17
1.606879427e-17
1.544717229e-17
1.485504745e-17
1.429067437e-17
1.375243237e-17
1.323881458e-17
1.274841958e-17
1.227994207e-17
1.183216622e-17
1.140395776e-17
1.099425839e-17
1.060207948e-17
1.022649703e-17
9.866646103e-18
9.521717253e-18
9.190951913e-18
8.873638755e-18
8.5691103e-18
8.27673961e-18
7.995937347e-18
7.726149187e-18
7.466853297e-18
7.217558017e-18
6.977800265e-18
6.747142747e-18
6.525172743e-18
6.31150076e-18
6.105758359e-18
5.907596947e-18
5.716686779e-18
5.532715303e-18
5.355386376e-18
5.184419199e-18
5.019547286e-18
4.860517687e-18
4.707089921e-18
4.559035431e-18
4.416136948e-18
4.278187807e-18
4.144991056e-18
4.016358988e-18
3.892113008e-18
3.772082591e-18
3.656105088e-18
3.544025302e-18
3.435694947e-18
3.330972482e-18
3.229722612e-18
3.131815847e-18
3.037128406e-18
2.945541756e-18
2.856942488e-18
2.77122211e-18
2.688276534e-18
2.608006092e-18
2.530315141e-18
2.455112011e-18
2.38230883e-18
2.311821219e-18
2.243568055e-18
2.177471487e-18
2.113456833e-18
2.051452278e-18
1.991388972e-18
1.93320041e-18
1.876822836e-18
1.822194958e-18
1.769257762e-18
1.71795443e-18
1.668230255e-18
1.62003258e-18
1.573310788e-18
1.528016029e-18
1.484101305e-18
1.441521268e-18
1.400232334e-18
1.360192373e-18
1.321360775e-18
1.283698447e-18
1.247167564e-18
1.211731811e-18
1.177356024e-18
1.144006293e-18
1.111649936e-18
1.080255332e-18
1.049792058e-18
1.020230597e-18
9.915426105e-19
9.637006323e-19
9.366781047e-19
9.104494646e-19
8.849899531e-19
8.602755807e-19
8.362833101e-19
8.129907545e-19
7.903762575e-19
7.684190341e-19
7.47098869e-19
7.263962221e-19
7.062922016e-19
6.867685844e-19
6.678077007e-19
6.493924154e-19
6.315061941e-19
6.141329893e-19
5.972573721e-19
5.808643829e-19
5.649394615e-19
5.494686044e-19
5.344381539e-19
5.198350262e-19
5.056464213e-19
4.918600416e-19
4.784639132e-19
4.654464738e-19
4.527964791e-19
4.40503112e-19
4.28555812e-19
4.169443909e-19
4.05659017e-19
3.946901045e-19
3.840283861e-19
3.736648597e-19
3.635908118e-19
3.537978142e-19
3.44277716e-19
3.35022617e-19
3.260247714e-19
3.172767203e-19
3.087712181e-19
3.005013053e-19
2.924601822e-19
2.846412695e-19
2.77038193e-19
2.696447463e-19
2.624549126e-19
2.554629009e-19
2.486630229e-19
2.420498307e-19
2.356179587e-19
2.293622684e-19
2.232777431e-19
2.173594829e-19
2.116028363e-19
2.060032128e-19
2.005561623e-19
1.952573982e-19
1.901027101e-19
1.850880503e-19
1.802095243e-19
1.754632718e-19
1.708455485e-19
1.663528236e-19
1.619815794e-19
1.577283985e-19
1.535900178e-19
1.495631944e-19
1.456448284e-19
1.418318959e-19
1.381215078e-19
1.345107881e-19
1.309969892e-19
1.275773787e-19
1.242493988e-19
1.210105242e-19
1.178582687e-19
1.147902586e-19
1.118041779e-19
1.088977659e-19
1.060688539e-19
1.033152964e-19
1.006350187e-19
9.802599617e-20
9.548630563e-20
9.301404244e-20
9.060736399e-20
8.826448055e-20
8.598366455e-20
8.37632117e-20
8.160149505e-20
7.949690154e-20
7.744790749e-20
7.54529787e-20
7.351065235e-20
7.161951091e-20
6.977817376e-20
6.798527496e-20
6.623951495e-20
6.453962966e-20
6.288439876e-20
6.127259405e-20
5.970305274e-20
5.817463277e-20
5.668624135e-20
5.523679402e-20
5.382523674e-20
5.245055546e-20
5.111178841e-20
4.980795618e-20
4.853812965e-20
4.73014013e-20
4.609689579e-20
4.492372885e-20
4.37810871e-20
4.266814988e-20
4.158412986e-20
4.052826264e-20
3.949979947e-20
3.849801054e-20
3.752218957e-20
3.657165131e-20
3.564573662e-20
3.474378296e-20
3.386514754e-20
3.300921308e-20
3.217537122e-20
3.136307678e-20
3.05717465e-20
2.980082675e-20
2.904978935e-20
2.831808587e-20
2.760522059e-20
2.691067988e-20
2.62340117e-20
2.557473447e-20
2.493239649e-20
2.430652685e-20
2.369673508e-20
2.31025868e-20
2.252367254e-20
2.195957763e-20
2.14099211e-20
2.087433461e-20
2.03524446e-20
1.984391437e-20
1.934838291e-20
1.886550903e-20
1.839495694e-20
1.793641901e-20
1.748956485e-20
1.70541126e-20
1.662977477e-20
1.621624281e-20
1.581324413e-20
1.542049708e-20
1.503773853e-20
1.466470627e-20
1.430114959e-20
1.394683416e-20
1.360151681e-20
1.326496092e-20
1.293693983e-20
1.26172368e-20
1.230563093e-20
1.200191908e-20
1.170591297e-20
1.141739505e-20
1.113617753e-20
1.086207324e-20
1.059489669e-20
1.03344793e-20
1.00806331e-20
9.833204217e-21
9.592019608e-21
9.356919316e-21
9.12773269e-21
8.904330905e-21
8.686560169e-21
8.474272843e-21
8.267328872e-21
8.065588804e-21
7.868925871e-21
7.677211654e-21
7.490314419e-21
7.308118882e-21
7.130494691e-21
6.95732569e-21
6.78851012e-21
6.623924524e-21
6.463464163e-21
6.307029505e-21
6.154505643e-21
6.005801201e-21
5.860827417e-21
5.719482564e-21
5.581672741e-21
5.447304031e-21
5.316292089e-21
5.188549973e-21
5.063998652e-21
4.942552671e-21
4.824131187e-21
4.7086672e-21
4.596081902e-21
4.486300309e-21
4.379253406e-21
4.27487071e-21
4.173074229e-21
4.073803044e-21
3.976992223e-21
3.882587513e-21
3.790529498e-21
3.700740298e-21
3.613163768e-21
3.527752272e-21
3.444448278e-21
3.363199099e-21
3.283951469e-21
3.206652579e-21
3.131255531e-21
3.05771087e-21
2.985970562e-21
2.9159751e-21
2.847677805e-21
2.781044995e-21
2.716021393e-21
2.652570759e-21
2.590651968e-21
2.530213453e-21
2.471217704e-21
2.413620267e-21
2.35739058e-21
2.302479797e-21
2.248850912e-21
2.19647068e-21
2.145304807e-21
2.09531054e-21
2.04645471e-21
1.998697715e-21
1.95199821e-21
1.906321738e-21
1.861633551e-21
1.81790629e-21
1.775104374e-21
1.733200475e-21
1.692154191e-21
1.651942953e-21
1.612533927e-21
1.573889579e-21
1.53598472e-21
1.233244552e-21
9.166266204e-22
6.934347001e-22
5.352440004e-22
4.230173371e-22
3.434121119e-22
2.871178415e-22
2.473927306e-22
2.195478185e-22
2.001796028e-22
1.868189717e-22
1.778229879e-22
1.719243646e-22
1.682843879e-22
1.66283927e-22
1.655272544e-22
1.656727656e-22
1.665224032e-22
1.679501427e-22
1.698490524e-22
1.721446371e-22
1.747900449e-22
1.777789852e-22
1.810810275e-22
1.846969388e-22
1.886252127e-22
1.928715743e-22
1.974458502e-22
2.023553613e-22
2.076132186e-22
2.132331552e-22
2.192284421e-22
2.256143506e-22
2.324046194e-22
2.396139508e-22
2.472561648e-22
2.553453789e-22
2.638926683e-22
2.729093301e-22
2.824043416e-22
2.923844487e-22
3.028536281e-22
3.138132668e-22
3.25261292e-22
3.371935547e-22
3.495997765e-22
3.624643842e-22
3.75768496e-22
3.894932226e-22
4.036024296e-22
4.180678196e-22
4.328454448e-22
4.478950852e-22
4.631672194e-22
4.786075611e-22
4.941574546e-22
5.097613127e-22
5.253524352e-22
5.408682028e-22
5.562415664e-22
5.714111821e-22
5.863109328e-22
6.008789014e-22
6.150587784e-22
6.287948173e-22
6.420380782e-22
6.547450058e-22
6.668778987e-22
6.78405584e-22
6.893040089e-22
6.995558897e-22
7.091513052e-22
7.180864818e-22
7.263648545e-22
7.339952252e-22
7.409922684e-22
7.473750382e-22
7.531681994e-22
7.58398378e-22
7.630949977e-22
7.672912154e-22
7.710205327e-22
7.743170041e-22
7.772153523e-22
7.797500656e-22
7.819541539e-22
7.838609196e-22
7.85500259e-22
7.869019955e-22
7.880931443e-22
7.890990438e-22
7.899429753e-22
7.90646003e-22
7.91227066e-22
7.917032486e-22
7.920897649e-22
7.923999351e-22
7.926453902e-22
7.928365104e-22
7.929819755e-22
7.930894682e-22
7.931654292e-22
7.932155131e-22
7.932444235e-22
7.932561952e-22
7.932542426e-22
7.932414918e-22
7.932203764e-22
7.9319301e-22
7.931611418e-22
7.931262728e-22
7.930896563e-22
7.930523604e-22
7.930152285e-22
7.929789966e-22
7.929441948e-22
7.929112719e-22
7.928805207e-22
7.928521375e-22
7.92826221e-22
7.928027688e-22
7.927817123e-22
7.927629121e-22
7.927461772e-22
7.927312728e-22
7.927179446e-22
7.927059177e-22
7.926949052e-22
7.926846454e-22
7.926748783e-22
7.926653736e-22
7.926559385e-22
7.926464012e-22
7.926366416e-22
7.926265707e-22
7.926161359e-22
7.926053286e-22
7.925941627e-22
7.925826836e-22
7.925709599e-22
7.925590718e-22
7.925471179e-22
7.925351901e-22
7.925234183e-22
7.925118446e-22
7.925005762e-22
7.924897025e-22
7.924792631e-22
7.924693281e-22
7.924598939e-22
7.924509982e-22
7.924426563e-22
7.924348527e-22
7.924275448e-22
7.924207248e-22
7.924143527e-22
7.924083771e-22
7.924028103e-22
7.923975441e-22
7.923926131e-22
7.923879061e-22
7.923834502e-22
7.923792088e-22
7.923751217e-22
7.923712128e-22
7.923674299e-22
7.923638187e-22
7.923603075e-22
7.92356914e-22
7.923536572e-22
7.923505458e-22
7.923475208e-22
7.923446526e-22
7.923419018e-22
7.923393267e-22
7.923368736e-22
7.92334608e-22
7.923325042e-22
7.923305514e-22
7.923288227e-22
7.923272787e-22
7.923259574e-22
7.923248396e-22
7.923239389e-22
7.923232742e-22
7.92322849e-22
7.923226502e-22
7.923226807e-22
7.923229392e-22
7.923234314e-22
7.923241441e-22
7.923250597e-22
7.923261736e-22
7.92327456e-22
7.923289067e-22
7.923304796e-22
7.92332211e-22
7.923340017e-22
7.923358826e-22
7.923378028e-22
7.923397451e-22
7.923416744e-22
7.923435865e-22
7.923454302e-22
7.923472151e-22
7.923488835e-22
7.923504345e-22
7.923518495e-22
7.923531165e-22
7.923542195e-22
7.923551376e-22
7.923558771e-22
7.923564203e-22
7.9235677e-22
7.923569381e-22
7.923568868e-22
7.923566699e-22
7.923562412e-22
7.923556625e-22
7.923549003e-22
7.923539806e-22
7.923529146e-22
7.923517177e-22
7.923503899e-22
7.923489577e-22
7.923474291e-22
7.92345817e-22
7.923441379e-22
7.923424041e-22
7.923406285e-22
7.923388259e-22
7.923370093e-22
7.92335183e-22
7.923333648e-22
7.923315685e-22
7.92329795e-22
7.923280574e-22
7.923263652e-22
7.923247142e-22
7.923231298e-22
7.923215965e-22
7.9232013e-22
7.923187444e-22
7.923174082e-22
7.923161558e-22
7.923149889e-22
7.923139145e-22
7.923128884e-22
7.92312029e-22
7.923113499e-22
)
;

boundaryField
{
    inlet
    {
        type            fixedValue;
        value           uniform 0;
    }
    outlet
    {
        type            zeroGradient;
    }
    wall
    {
        type            empty;
    }
}


// ************************************************************************* //
