/*--------------------------------*- C++ -*----------------------------------*\
  =========                 |
  \\      /  F ield         | OpenFOAM: The Open Source CFD Toolbox
   \\    /   O peration     | Website:  https://openfoam.org
    \\  /    A nd           | Version:  7
     \\/     M anipulation  |
\*---------------------------------------------------------------------------*/
FoamFile
{
    version     2.0;
    format      ascii;
    class       volScalarField;
    location    "0.000558243009";
    object      CH2CHO_0;
}
// * * * * * * * * * * * * * * * * * * * * * * * * * * * * * * * * * * * * * //

dimensions      [0 0 0 0 0 0 0];

internalField   nonuniform List<scalar> 
1500
(
1.563118197e-27
1.472428347e-27
1.306385176e-27
1.154755202e-27
1.04827103e-27
9.850161799e-28
9.518599903e-28
9.362804194e-28
9.296650316e-28
9.270884423e-28
9.261251593e-28
9.257330097e-28
9.255213194e-28
9.2536487e-28
9.252322985e-28
9.251192351e-28
9.250258818e-28
9.249512371e-28
9.24892804e-28
9.248476066e-28
9.24813066e-28
9.247873724e-28
9.247694147e-28
9.247584713e-28
9.247538667e-28
9.247547299e-28
9.247599105e-28
9.247680349e-28
9.247776475e-28
9.247873752e-28
9.247960634e-28
9.248028561e-28
9.248072146e-28
9.248088899e-28
9.24807867e-28
9.248043027e-28
9.247984695e-28
9.247907114e-28
9.247814128e-28
9.247709786e-28
9.247598188e-28
9.247483346e-28
9.24736902e-28
9.247258538e-28
9.24715463e-28
9.24705929e-28
9.246973711e-28
9.246898291e-28
9.246832718e-28
9.246776107e-28
9.246727187e-28
9.246684489e-28
9.246646529e-28
9.246611962e-28
9.24657969e-28
9.246548942e-28
9.246519299e-28
9.246490701e-28
9.246463412e-28
9.246437979e-28
9.246415171e-28
9.246395923e-28
9.246381268e-28
9.246372282e-28
9.246370015e-28
9.246375435e-28
9.246389369e-28
9.246412449e-28
9.246445067e-28
9.246487335e-28
9.246539065e-28
9.246599747e-28
9.246668552e-28
9.246744352e-28
9.246825741e-28
9.246911083e-28
9.246998559e-28
9.24708623e-28
9.247172091e-28
9.247254143e-28
9.247330452e-28
9.247399204e-28
9.247458764e-28
9.247507712e-28
9.247544889e-28
9.247569416e-28
9.247580717e-28
9.247578523e-28
9.247562871e-28
9.247534099e-28
9.247492832e-28
9.247439961e-28
9.24737662e-28
9.247304152e-28
9.247224074e-28
9.247138039e-28
9.247047786e-28
9.246955099e-28
9.246861751e-28
9.24676946e-28
9.246679838e-28
9.246594344e-28
9.246514244e-28
9.246440574e-28
9.246374111e-28
9.246315358e-28
9.246264537e-28
9.246221591e-28
9.246186205e-28
9.246157831e-28
9.246135727e-28
9.246119005e-28
9.246106677e-28
9.24609771e-28
9.246091081e-28
9.246085821e-28
9.246081059e-28
9.246076054e-28
9.246070222e-28
9.246063144e-28
9.246054568e-28
9.246044406e-28
9.246032709e-28
9.246019649e-28
9.246005493e-28
9.245990567e-28
9.245975236e-28
9.245959875e-28
9.245944845e-28
9.245930487e-28
9.245917105e-28
9.245904967e-28
9.24589431e-28
9.245885346e-28
9.245878272e-28
9.245873285e-28
9.24587059e-28
9.245870416e-28
9.245873014e-28
9.245878669e-28
9.245887692e-28
9.245900415e-28
9.24591718e-28
9.245938321e-28
9.245964151e-28
9.245994938e-28
9.246030886e-28
9.246072119e-28
9.246118663e-28
9.246170434e-28
9.246227232e-28
9.246288735e-28
9.246354506e-28
9.246424e-28
9.246496572e-28
9.246571499e-28
9.246647996e-28
9.246725234e-28
9.246802367e-28
9.246878543e-28
9.246952931e-28
9.247024728e-28
9.247093174e-28
9.247157561e-28
9.247217233e-28
9.24727159e-28
9.247320086e-28
9.247362226e-28
9.247397561e-28
9.247425687e-28
9.247446245e-28
9.247458918e-28
9.24746344e-28
9.247459598e-28
9.247447243e-28
9.247426305e-28
9.2473968e-28
9.247358854e-28
9.247312715e-28
9.24725877e-28
9.247197567e-28
9.247129832e-28
9.24705648e-28
9.246978634e-28
9.246897626e-28
9.246814997e-28
9.246732484e-28
9.246651988e-28
9.246575536e-28
9.246505209e-28
9.246443078e-28
9.246391105e-28
9.246351056e-28
9.246324412e-28
9.246312294e-28
9.246315415e-28
9.246334063e-28
9.246368124e-28
9.246417144e-28
9.246480419e-28
9.246557111e-28
9.246646358e-28
9.24674737e-28
9.246859473e-28
9.246982096e-28
9.247114679e-28
9.247256505e-28
9.247406474e-28
9.247562845e-28
9.247722989e-28
9.247883219e-28
9.248038745e-28
9.248183817e-28
9.248312094e-28
9.248417252e-28
9.248493814e-28
9.248538144e-28
9.2485495e-28
9.248531017e-28
9.248490459e-28
9.248440562e-28
9.248398834e-28
9.248386669e-28
9.248427749e-28
9.248545748e-28
9.248761476e-28
9.249089682e-28
9.249535862e-28
9.250093451e-28
9.250741863e-28
9.251445783e-28
9.252156118e-28
9.25281284e-28
9.253349822e-28
9.253701531e-28
9.253811208e-28
9.253639903e-28
9.253175524e-28
9.252440865e-28
9.251499501e-28
9.250458462e-28
9.249466734e-28
9.248709067e-28
9.248395021e-28
9.248744599e-28
9.249972428e-28
9.25227319e-28
9.255796578e-28
9.260551019e-28
9.26598726e-28
9.267856067e-28
9.268357622e-28
9.268855377e-28
9.269357307e-28
9.269865947e-28
9.270382111e-28
9.270906102e-28
9.271438089e-28
9.271978211e-28
9.272526602e-28
9.273083395e-28
9.273648722e-28
9.274222718e-28
9.274805523e-28
9.27539728e-28
9.275998142e-28
9.276608269e-28
9.277227833e-28
9.277857014e-28
9.278496004e-28
9.279145007e-28
9.279804239e-28
9.28047393e-28
9.281154325e-28
9.281845681e-28
9.282548274e-28
9.283262395e-28
9.283988355e-28
9.284726483e-28
9.285477129e-28
9.286240664e-28
9.287017483e-28
9.287808005e-28
9.288612676e-28
9.289431969e-28
9.290266388e-28
9.291116468e-28
9.291982777e-28
9.292865921e-28
9.29376654e-28
9.29468532e-28
9.295622986e-28
9.296580312e-28
9.297558119e-28
9.298557283e-28
9.299578734e-28
9.300623461e-28
9.301692519e-28
9.302787029e-28
9.303908187e-28
9.305057262e-28
9.306235609e-28
9.307444671e-28
9.308685984e-28
9.309961186e-28
9.311272021e-28
9.312620349e-28
9.314008153e-28
9.315437547e-28
9.316910786e-28
9.318430275e-28
9.319998581e-28
9.321618441e-28
9.323292777e-28
9.32502471e-28
9.326817568e-28
9.328674907e-28
9.330600524e-28
9.332598473e-28
9.334673087e-28
9.336828991e-28
9.339071129e-28
9.341404781e-28
9.343835591e-28
9.346369589e-28
9.349013218e-28
9.351773364e-28
9.354657386e-28
9.357673146e-28
9.360829048e-28
9.364134071e-28
9.367597809e-28
9.371230513e-28
9.375043133e-28
9.379047367e-28
9.383255709e-28
9.387681503e-28
9.392338993e-28
9.397243389e-28
9.402410923e-28
9.407858917e-28
9.413605849e-28
9.41967143e-28
9.426076675e-28
9.432843987e-28
9.439997239e-28
9.447561864e-28
9.455564945e-28
9.464035314e-28
9.473003657e-28
9.482502611e-28
9.492566883e-28
9.503233363e-28
9.514541243e-28
9.526532143e-28
9.539250242e-28
9.552742411e-28
9.567058354e-28
9.582250753e-28
9.598375416e-28
9.615491434e-28
9.633661337e-28
9.65295126e-28
9.673431108e-28
9.695174733e-28
9.718260107e-28
9.742769504e-28
9.768789682e-28
9.796412074e-28
9.825732976e-28
9.856853741e-28
9.889880976e-28
9.924926737e-28
9.962108732e-28
1.000155052e-27
1.00433817e-27
1.008773814e-27
1.013476214e-27
1.018460267e-27
1.023741553e-27
1.029336358e-27
1.035261687e-27
1.041535292e-27
1.048175682e-27
1.055202143e-27
1.062634756e-27
1.070494412e-27
1.078802828e-27
1.087582561e-27
1.09685702e-27
1.10665048e-27
1.116988092e-27
1.127895891e-27
1.139400807e-27
1.15153067e-27
1.164314212e-27
1.177781077e-27
1.191961815e-27
1.206887885e-27
1.222591651e-27
1.239106378e-27
1.256466226e-27
1.274706236e-27
1.293862323e-27
1.313971262e-27
1.335070664e-27
1.357198968e-27
1.380395409e-27
1.404699999e-27
1.430153498e-27
1.456797383e-27
1.484673819e-27
1.513825616e-27
1.544296201e-27
1.576129567e-27
1.609370236e-27
1.644063209e-27
1.680253918e-27
1.717988176e-27
1.757312118e-27
1.798272152e-27
1.840914891e-27
1.885287101e-27
1.931435631e-27
1.979407351e-27
2.029249084e-27
2.081007539e-27
2.134729238e-27
2.190460448e-27
2.248247108e-27
2.308134751e-27
2.370168438e-27
2.434392676e-27
2.500851351e-27
2.569587644e-27
2.640643967e-27
2.714061882e-27
2.78988203e-27
2.868144062e-27
2.948886565e-27
3.032146994e-27
3.117961609e-27
3.206365406e-27
3.297392056e-27
3.391073849e-27
3.487441636e-27
3.586524774e-27
3.688351083e-27
3.792946796e-27
3.900336522e-27
4.010543209e-27
4.123588113e-27
4.239490773e-27
4.358268991e-27
4.479938817e-27
4.604514539e-27
4.732008683e-27
4.862432019e-27
4.995793565e-27
5.132100614e-27
5.271358753e-27
5.413571898e-27
5.558742334e-27
5.706870764e-27
5.857956364e-27
6.01199685e-27
6.168988551e-27
6.328926489e-27
6.491804472e-27
6.657615195e-27
6.826350348e-27
6.998000736e-27
7.172556409e-27
7.350006799e-27
7.530340871e-27
7.713547281e-27
7.899614549e-27
8.088531235e-27
8.280286137e-27
8.474868489e-27
8.672268178e-27
8.872475973e-27
9.075483757e-27
9.281284784e-27
9.489873936e-27
9.701248006e-27
9.915405981e-27
1.013234934e-26
1.03520824e-26
1.057461258e-26
1.079995082e-26
1.10281119e-26
1.125911481e-26
1.149298314e-26
1.172974553e-26
1.1969436e-26
1.221209448e-26
1.24577672e-26
1.270650719e-26
1.295837476e-26
1.3213438e-26
1.347177331e-26
1.373346594e-26
1.399861055e-26
1.426731182e-26
1.453968498e-26
1.481585652e-26
1.509596479e-26
1.53801608e-26
1.566860921e-26
1.596149041e-26
1.62590058e-26
1.656138922e-26
1.68689064e-26
1.718177221e-26
1.750025386e-26
1.782465105e-26
1.815517339e-26
1.849210325e-26
1.883576627e-26
1.918651639e-26
1.954473195e-26
1.99108159e-26
2.028519676e-26
2.066832982e-26
2.106069952e-26
2.146282853e-26
2.187530865e-26
2.229884388e-26
2.273395547e-26
2.318125787e-26
2.364144939e-26
2.411530536e-26
2.460358373e-26
2.51070293e-26
2.562643995e-26
2.616267102e-26
2.671662764e-26
2.728926151e-26
2.788157073e-26
2.849460088e-26
2.912944653e-26
2.978725296e-26
3.046921795e-26
3.11765936e-26
3.191068832e-26
3.267286884e-26
3.346456228e-26
3.428725838e-26
3.514251179e-26
3.603194446e-26
3.695724816e-26
3.792018711e-26
3.892260075e-26
3.996640667e-26
4.105360365e-26
4.21862749e-26
4.336659148e-26
4.459681588e-26
4.587930583e-26
4.721651834e-26
4.861101394e-26
5.006546121e-26
5.158264157e-26
5.316545438e-26
5.481692232e-26
5.654019716e-26
5.833856589e-26
6.021545728e-26
6.217444881e-26
6.421927422e-26
6.635383149e-26
6.85821915e-26
7.090860736e-26
7.333752455e-26
7.587359191e-26
7.85216738e-26
8.128686338e-26
8.417449746e-26
8.719017317e-26
9.033976677e-26
9.362945518e-26
9.706574096e-26
1.006554814e-25
1.044059229e-25
1.083247425e-25
1.124200975e-25
1.167006865e-25
1.211758248e-25
1.258555377e-25
1.307506783e-25
1.358730753e-25
1.412357218e-25
1.468530151e-25
1.527410649e-25
1.589180889e-25
1.654049243e-25
1.722256876e-25
1.794086306e-25
1.86987251e-25
1.950017349e-25
2.035008348e-25
2.125443138e-25
2.222061314e-25
2.325785976e-25
2.437777935e-25
2.559506465e-25
2.692841707e-25
2.840175382e-25
3.004578561e-25
3.190007921e-25
3.401575482e-25
3.645901498e-25
3.93157628e-25
4.2697648e-25
4.674998545e-25
5.166213036e-25
5.768107868e-25
6.512930419e-25
7.442816542e-25
8.612864053e-25
1.009517122e-24
1.198414735e-24
1.440350208e-24
1.751545294e-24
2.1532868e-24
2.673529827e-24
3.349017394e-24
4.228086875e-24
5.374391896e-24
6.871847276e-24
8.831212188e-24
1.139887387e-23
1.476859649e-23
1.919727917e-23
2.502615498e-23
3.270940447e-23
4.285291827e-23
5.626701898e-23
7.403848434e-23
9.762940962e-23
1.290136201e-22
1.708659667e-22
2.268266267e-22
3.018726e-22
4.028436523e-22
5.391927159e-22
7.240654417e-22
9.758669947e-22
1.320557411e-21
1.795047946e-21
2.452279442e-21
3.368899334e-21
4.656999894e-21
6.482279055e-21
9.092481556e-21
1.286249984e-20
1.836681628e-20
2.649740195e-20
3.865820145e-20
5.709043368e-20
8.542452329e-20
1.296304178e-19
1.996788316e-19
3.124908314e-19
4.972591336e-19
8.052052103e-19
1.327765443e-18
2.231046884e-18
3.822167962e-18
6.678997638e-18
1.190765116e-17
2.166050498e-17
4.019071896e-17
7.601969701e-17
1.464224908e-16
2.867399289e-16
5.696858284e-16
1.145097228e-15
2.320640816e-15
4.722141757e-15
9.602789584e-15
1.94189195e-14
3.886707542e-14
7.671977978e-14
1.49124316e-13
2.858026432e-13
5.42156133e-13
1.0228579e-12
1.926859535e-12
3.634088097e-12
6.878195224e-12
1.309214033e-11
2.508769627e-11
4.837223468e-11
9.364881323e-11
1.814074878e-10
3.499152005e-10
6.689444305e-10
1.259157847e-09
2.329155986e-09
4.212537501e-09
7.43184233e-09
1.266272086e-08
2.091237913e-08
3.356986804e-08
5.233192938e-08
7.906817393e-08
1.156607142e-07
1.640304104e-07
2.265605194e-07
3.066838949e-07
4.093806822e-07
5.414506906e-07
7.134337265e-07
9.27814592e-07
1.191060301e-06
1.49969187e-06
1.842429632e-06
2.183490287e-06
2.487419677e-06
2.716003233e-06
2.850766833e-06
2.876427215e-06
2.797002243e-06
2.631275843e-06
2.405039664e-06
2.144190334e-06
1.870673199e-06
1.60086039e-06
1.348200603e-06
1.118363568e-06
9.169663481e-07
7.438741866e-07
5.980202118e-07
4.771209433e-07
3.783071274e-07
2.98054522e-07
2.332823429e-07
1.818392548e-07
1.412667239e-07
1.094558488e-07
8.46519913e-08
6.537608365e-08
5.045157439e-08
3.891970007e-08
3.000535997e-08
2.319867776e-08
1.793901581e-08
1.385122166e-08
1.070329319e-08
8.27772475e-09
6.40740299e-09
4.964152957e-09
3.849641822e-09
2.988676188e-09
2.322617211e-09
1.807116736e-09
1.407791681e-09
1.098165503e-09
8.578422876e-10
6.711038986e-10
5.258314454e-10
4.126759591e-10
3.244207047e-10
2.554908668e-10
2.015765363e-10
1.593427966e-10
1.262067248e-10
1.001658069e-10
7.966585495e-11
6.349927678e-11
5.072667453e-11
4.061637947e-11
3.25977838e-11
2.622529124e-11
2.115044543e-11
1.710036079e-11
1.386101419e-11
1.126428875e-11
9.177916233e-12
7.497660993e-12
6.141238763e-12
5.043579616e-12
4.153133405e-12
3.428984557e-12
2.838595968e-12
2.35604239e-12
1.960625178e-12
1.635784477e-12
1.368243714e-12
1.14733573e-12
9.644711489e-13
8.127182747e-13
6.864705467e-13
5.811828589e-13
4.931621035e-13
4.194004861e-13
3.574426295e-13
3.052794135e-13
2.612630075e-13
2.240387282e-13
1.924902816e-13
1.656956683e-13
1.428916026e-13
1.234447404e-13
1.068283634e-13
9.260344457e-14
8.040323788e-14
6.99207093e-14
6.089826305e-14
5.311932541e-14
4.640143535e-14
4.059055985e-14
3.555640684e-14
3.118855226e-14
2.739323307e-14
2.40906862e-14
2.121293574e-14
1.870194921e-14
1.650809812e-14
1.458887015e-14
1.29077896e-14
1.143351073e-14
1.013905487e-14
9.001167186e-15
7.999773571e-15
7.117521009e-15
6.339388077e-15
5.652354227e-15
5.045118549e-15
4.507860204e-15
4.032034028e-15
3.610195884e-15
3.235853181e-15
2.903336783e-15
2.60769105e-15
2.344579327e-15
2.1102026e-15
1.901229401e-15
1.714735304e-15
1.548150656e-15
1.399215346e-15
1.265939637e-15
1.146570196e-15
1.0395606e-15
9.435456987e-16
8.57319313e-16
7.798148063e-16
7.100881433e-16
6.473031031e-16
5.907183589e-16
5.396761817e-16
4.935925471e-16
4.519484725e-16
4.142824163e-16
3.801836062e-16
3.492861774e-16
3.212640226e-16
2.958262556e-16
2.727132154e-16
2.516929493e-16
2.325581053e-16
2.151231921e-16
1.992221545e-16
1.847062344e-16
1.714420739e-16
1.593100392e-16
1.48202732e-16
1.380236713e-16
1.286861257e-16
1.201120741e-16
1.12231281e-16
1.049804783e-16
9.830263459e-17
9.21463029e-17
8.646504558e-17
8.121691606e-17
7.636399738e-17
7.187199298e-17
6.770985926e-17
6.384947793e-17
6.026536196e-17
5.693439377e-17
5.383558925e-17
5.094988868e-17
4.825996745e-17
4.575006756e-17
4.340584442e-17
4.121423235e-17
3.916332028e-17
3.724224305e-17
3.544108166e-17
3.375077421e-17
3.216303632e-17
3.067028797e-17
2.926558876e-17
2.794257936e-17
2.669542846e-17
2.551878388e-17
2.440773036e-17
2.335775048e-17
2.236468858e-17
2.14247189e-17
2.053431726e-17
1.969023393e-17
1.888947021e-17
1.812925668e-17
1.740703384e-17
1.672043441e-17
1.60672663e-17
1.544549905e-17
1.485324978e-17
1.428877125e-17
1.375044051e-17
1.323674926e-17
1.274629436e-17
1.227776921e-17
1.182995662e-17
1.140172111e-17
1.099200346e-17
1.059981405e-17
1.022422783e-17
9.864379368e-18
9.519458476e-18
9.188706034e-18
8.871410036e-18
8.566902359e-18
8.274555558e-18
7.993780033e-18
7.724021033e-18
7.464756485e-18
7.215494456e-18
6.975771442e-18
6.745150089e-18
6.523217266e-18
6.309583164e-18
6.10387943e-18
5.905757304e-18
5.714886621e-18
5.530954758e-18
5.353665469e-18
5.182737847e-18
5.017905326e-18
4.858914887e-18
4.70552609e-18
4.557510317e-18
4.414650274e-18
4.276739119e-18
4.143579759e-18
4.014984709e-18
3.890775103e-18
3.770780522e-18
3.654838219e-18
3.542792934e-18
3.434496482e-18
3.329807191e-18
3.228589764e-18
3.130714828e-18
3.036058476e-18
2.94450233e-18
2.855932941e-18
2.770241704e-18
2.687324574e-18
2.607081981e-18
2.529418221e-18
2.454241598e-18
2.381464197e-18
2.311001721e-18
2.24277306e-18
2.176700479e-18
2.112709159e-18
2.050727286e-18
1.99068596e-18
1.932518842e-18
1.876162198e-18
1.821554689e-18
1.768637201e-18
1.717353062e-18
1.667647591e-18
1.619468094e-18
1.57276394e-18
1.527486365e-18
1.483588289e-18
1.441024478e-18
1.399751265e-18
1.359726566e-18
1.32090974e-18
1.283261731e-18
1.246744832e-18
1.211322613e-18
1.17695995e-18
1.143622949e-18
1.111278908e-18
1.079896273e-18
1.049444559e-18
1.019894282e-18
9.912171666e-19
9.633857724e-19
9.363735626e-19
9.101548559e-19
8.847049115e-19
8.599998994e-19
8.360166572e-19
8.12732875e-19
7.901269233e-19
7.681779719e-19
7.468658138e-19
7.261708694e-19
7.060743188e-19
6.865578967e-19
6.67603989e-19
6.491954618e-19
6.313157895e-19
6.13948961e-19
5.970795209e-19
5.806924587e-19
5.647733103e-19
5.49307952e-19
5.342828896e-19
5.196849592e-19
5.055014007e-19
4.917199305e-19
4.783285176e-19
4.653156295e-19
4.526700167e-19
4.403808869e-19
4.284377076e-19
4.168302734e-19
4.055487271e-19
3.945835227e-19
3.839253729e-19
3.735653436e-19
3.63494687e-19
3.537049965e-19
3.441880717e-19
3.349359621e-19
3.259410551e-19
3.171958225e-19
3.086931032e-19
3.004258627e-19
2.923873126e-19
2.845709312e-19
2.769702864e-19
2.695791413e-19
2.623915451e-19
2.554016877e-19
2.48603882e-19
2.419926696e-19
2.355626949e-19
2.29308827e-19
2.232260741e-19
2.173095615e-19
2.115545684e-19
2.059565096e-19
2.005110297e-19
1.95213785e-19
1.900605863e-19
1.850473362e-19
1.801701651e-19
1.754252059e-19
1.708087859e-19
1.663172724e-19
1.619471979e-19
1.576951421e-19
1.535578363e-19
1.495320579e-19
1.45614729e-19
1.41802799e-19
1.3809335e-19
1.344835601e-19
1.309706457e-19
1.275519063e-19
1.242247357e-19
1.20986645e-19
1.17835156e-19
1.147679074e-19
1.117825418e-19
1.088768351e-19
1.060485676e-19
1.032956297e-19
1.006159584e-19
9.800755062e-20
9.546843452e-20
9.299672268e-20
9.059057733e-20
8.824821028e-20
8.596787463e-20
8.374788267e-20
8.1586602e-20
7.948244282e-20
7.743385874e-20
7.543933058e-20
7.349739044e-20
7.160663016e-20
6.976564715e-20
6.797310535e-20
6.622770968e-20
6.452815787e-20
6.287322775e-20
6.126169729e-20
5.969243984e-20
5.816430534e-20
5.667619131e-20
5.522701745e-20
5.381572006e-20
5.244129399e-20
5.110276647e-20
4.979917257e-20
4.852956931e-20
4.729304503e-20
4.60887227e-20
4.49157656e-20
4.377331855e-20
4.266056873e-20
4.157673079e-20
4.052102697e-20
3.949273768e-20
3.849113136e-20
3.751549144e-20
3.656512726e-20
3.563935768e-20
3.473754505e-20
3.385904215e-20
3.300324153e-20
3.216953847e-20
3.135735471e-20
3.056614497e-20
2.979532864e-20
2.904438817e-20
2.831277539e-20
2.75999853e-20
2.690552864e-20
2.622895536e-20
2.556978087e-20
2.49275528e-20
2.430178661e-20
2.369207638e-20
2.309801138e-20
2.251916314e-20
2.195514499e-20
2.14055749e-20
2.0870073e-20
2.034828105e-20
1.983982895e-20
1.934436595e-20
1.886156747e-20
1.839108605e-20
1.793259606e-20
1.748581599e-20
1.705043528e-20
1.662614286e-20
1.621265771e-20
1.580970787e-20
1.541701641e-20
1.503430951e-20
1.46613237e-20
1.429782211e-20
1.394355964e-20
1.359828844e-20
1.326178552e-20
1.293381638e-20
1.261416131e-20
1.230260731e-20
1.199895238e-20
1.170298319e-20
1.141451509e-20
1.113334651e-20
1.085928329e-20
1.059214459e-20
1.033175561e-20
1.007794643e-20
9.830549092e-21
9.589387407e-21
9.354314196e-21
9.125162496e-21
8.90178953e-21
8.684056116e-21
8.471804486e-21
8.264891715e-21
8.063183199e-21
7.866544982e-21
7.674858919e-21
7.488003161e-21
7.305840464e-21
7.128249748e-21
6.955111266e-21
6.78631853e-21
6.62175951e-21
6.461329449e-21
6.304932339e-21
6.152446993e-21
6.003784899e-21
5.858834724e-21
5.71751059e-21
5.579712142e-21
5.445370445e-21
5.31438635e-21
5.186678132e-21
5.062155376e-21
4.940740973e-21
4.822344927e-21
4.706907099e-21
4.594339493e-21
4.484581373e-21
4.377553041e-21
4.273190531e-21
4.171421944e-21
4.072180335e-21
3.975398608e-21
3.881011482e-21
3.788967072e-21
3.699196784e-21
3.611647629e-21
3.526268237e-21
3.44299713e-21
3.361774818e-21
3.282557021e-21
3.205285786e-21
3.129900359e-21
3.05636984e-21
2.984638891e-21
2.914654518e-21
2.846368927e-21
2.77974495e-21
2.714737739e-21
2.651298995e-21
2.589392811e-21
2.528969589e-21
2.469979181e-21
2.412394834e-21
2.35618252e-21
2.301287411e-21
2.247675685e-21
2.195313664e-21
2.14415064e-21
2.094163321e-21
2.045312468e-21
1.997557951e-21
1.950873103e-21
1.905210523e-21
1.860540388e-21
1.816831308e-21
1.774048824e-21
1.73215497e-21
1.691130701e-21
1.650943431e-21
1.611561338e-21
1.572958464e-21
1.535112955e-21
1.23301443e-21
9.158064514e-22
6.927164867e-22
5.346739841e-22
4.22590195e-22
3.430828858e-22
2.868517022e-22
2.471735395e-22
2.193884046e-22
2.000740345e-22
1.867317324e-22
1.777539653e-22
1.718773637e-22
1.682582337e-22
1.662840196e-22
1.655033003e-22
1.656553696e-22
1.665215936e-22
1.679490527e-22
1.698555893e-22
1.721571494e-22
1.748089967e-22
1.77805529e-22
1.811163679e-22
1.847395406e-22
1.886770354e-22
1.929314904e-22
1.97513844e-22
2.024326095e-22
2.077014707e-22
2.133312473e-22
2.19336445e-22
2.257339632e-22
2.325360595e-22
2.397573118e-22
2.474103537e-22
2.555116429e-22
2.640710846e-22
2.731001635e-22
2.826072802e-22
2.925994992e-22
3.030808239e-22
3.140526761e-22
3.25513348e-22
3.374564361e-22
3.498727541e-22
3.627484484e-22
3.760621787e-22
3.897933051e-22
4.039113617e-22
4.183816032e-22
4.331662453e-22
4.482197227e-22
4.634930161e-22
4.789353501e-22
4.944858125e-22
5.100881867e-22
5.256757309e-22
5.411880691e-22
5.565565154e-22
5.717195475e-22
5.866103979e-22
6.01170309e-22
6.153397564e-22
6.290647874e-22
6.422967286e-22
6.549914034e-22
6.671115068e-22
6.786262593e-22
6.895114278e-22
6.997502134e-22
7.093323363e-22
7.182544996e-22
7.26520052e-22
7.341381375e-22
7.411231106e-22
7.474942259e-22
7.532762683e-22
7.584957134e-22
7.631831586e-22
7.673700256e-22
7.710908442e-22
7.743792808e-22
7.772706862e-22
7.797986014e-22
7.819968422e-22
7.838978364e-22
7.855321899e-22
7.869294167e-22
7.881166078e-22
7.891189141e-22
7.899596623e-22
7.906598034e-22
7.912383796e-22
7.917123484e-22
7.920969737e-22
7.924054553e-22
7.926495385e-22
7.928393985e-22
7.929838281e-22
7.930904193e-22
7.931656691e-22
7.932151418e-22
7.932435506e-22
7.932549244e-22
7.932526712e-22
7.932396712e-22
7.932183848e-22
7.931909169e-22
7.931589755e-22
7.931240808e-22
7.930874653e-22
7.930501996e-22
7.930131112e-22
7.929769349e-22
7.929422124e-22
7.929093581e-22
7.928786843e-22
7.928503846e-22
7.928245365e-22
7.928011588e-22
7.927801699e-22
7.927614279e-22
7.927447476e-22
7.92729894e-22
7.927166047e-22
7.927046128e-22
7.926936334e-22
7.926833996e-22
7.926736564e-22
7.926641736e-22
7.9265476e-22
7.926452415e-22
7.926355027e-22
7.926254467e-22
7.926150439e-22
7.926042552e-22
7.925931101e-22
7.925816645e-22
7.925699805e-22
7.925581248e-22
7.925462151e-22
7.925343352e-22
7.925226022e-22
7.925110762e-22
7.924998567e-22
7.924890178e-22
7.924786337e-22
7.924687468e-22
7.924593818e-22
7.924505443e-22
7.924422498e-22
7.924344908e-22
7.924272334e-22
7.924204577e-22
7.924141244e-22
7.924082065e-22
7.924026937e-22
7.923974776e-22
7.923925802e-22
7.923879213e-22
7.923835089e-22
7.923792829e-22
7.92375238e-22
7.923713818e-22
7.923676333e-22
7.92364041e-22
7.923605703e-22
7.923572054e-22
7.923539812e-22
7.923508894e-22
7.923479048e-22
7.92345062e-22
7.923423282e-22
7.923397878e-22
7.923373649e-22
7.923350917e-22
7.923329998e-22
7.923310859e-22
7.923293625e-22
7.923278654e-22
7.923265335e-22
7.923254322e-22
7.923245499e-22
7.923238997e-22
7.923234891e-22
7.923232866e-22
7.923233388e-22
7.923236148e-22
7.923241023e-22
7.923248358e-22
7.923257576e-22
7.923268757e-22
7.923281751e-22
7.923296328e-22
7.923312395e-22
7.923329551e-22
7.923347725e-22
7.923366654e-22
7.923385933e-22
7.923405536e-22
7.923424794e-22
7.923444115e-22
7.923462643e-22
7.923480536e-22
7.923497349e-22
7.923513016e-22
7.923527247e-22
7.923539964e-22
7.923551005e-22
7.923560332e-22
7.923567747e-22
7.923573264e-22
7.923576897e-22
7.923578449e-22
7.923578058e-22
7.923575731e-22
7.92357151e-22
7.923565546e-22
7.923557844e-22
7.923548526e-22
7.9235377e-22
7.92352549e-22
7.923512006e-22
7.923497416e-22
7.923481822e-22
7.923465396e-22
7.923448217e-22
7.923430459e-22
7.923412301e-22
7.923393795e-22
7.923375101e-22
7.923356269e-22
7.923337673e-22
7.923319066e-22
7.923300749e-22
7.923282739e-22
7.923265154e-22
7.923248063e-22
7.923231546e-22
7.923215591e-22
7.923200218e-22
7.923185764e-22
7.923171665e-22
7.923158464e-22
7.923146211e-22
7.923134853e-22
7.923124111e-22
7.923114811e-22
7.923107668e-22
)
;

boundaryField
{
    inlet
    {
        type            fixedValue;
        value           uniform 0;
    }
    outlet
    {
        type            zeroGradient;
    }
    wall
    {
        type            empty;
    }
}


// ************************************************************************* //
