/*--------------------------------*- C++ -*----------------------------------*\
  =========                 |
  \\      /  F ield         | OpenFOAM: The Open Source CFD Toolbox
   \\    /   O peration     | Website:  https://openfoam.org
    \\  /    A nd           | Version:  7
     \\/     M anipulation  |
\*---------------------------------------------------------------------------*/
FoamFile
{
    version     2.0;
    format      ascii;
    class       volScalarField;
    location    "0.000558243009";
    object      CH2CO_0;
}
// * * * * * * * * * * * * * * * * * * * * * * * * * * * * * * * * * * * * * //

dimensions      [0 0 0 0 0 0 0];

internalField   nonuniform List<scalar> 
1500
(
1.903925416e-14
7.445278294e-14
1.536052614e-13
2.304631596e-13
2.876418734e-13
3.224598164e-13
3.404923665e-13
3.486279755e-13
3.518797906e-13
3.530466774e-13
3.534267801e-13
3.535402324e-13
3.535715096e-13
3.535795282e-13
3.535814512e-13
3.535818847e-13
3.53581977e-13
3.535819956e-13
3.535819992e-13
3.535819999e-13
3.53582e-13
3.53582e-13
3.53582e-13
3.53582e-13
3.53582e-13
3.53582e-13
3.53582e-13
3.53582e-13
3.53582e-13
3.53582e-13
3.53582e-13
3.53582e-13
3.53582e-13
3.53582e-13
3.53582e-13
3.53582e-13
3.53582e-13
3.53582e-13
3.53582e-13
3.53582e-13
3.53582e-13
3.53582e-13
3.53582e-13
3.53582e-13
3.53582e-13
3.53582e-13
3.53582e-13
3.53582e-13
3.53582e-13
3.53582e-13
3.53582e-13
3.53582e-13
3.53582e-13
3.53582e-13
3.53582e-13
3.53582e-13
3.53582e-13
3.53582e-13
3.53582e-13
3.53582e-13
3.53582e-13
3.53582e-13
3.53582e-13
3.53582e-13
3.53582e-13
3.53582e-13
3.53582e-13
3.53582e-13
3.53582e-13
3.53582e-13
3.53582e-13
3.53582e-13
3.53582e-13
3.53582e-13
3.53582e-13
3.53582e-13
3.53582e-13
3.53582e-13
3.53582e-13
3.53582e-13
3.53582e-13
3.53582e-13
3.53582e-13
3.53582e-13
3.53582e-13
3.53582e-13
3.53582e-13
3.53582e-13
3.53582e-13
3.53582e-13
3.53582e-13
3.53582e-13
3.53582e-13
3.53582e-13
3.53582e-13
3.53582e-13
3.53582e-13
3.53582e-13
3.53582e-13
3.53582e-13
3.53582e-13
3.53582e-13
3.53582e-13
3.53582e-13
3.53582e-13
3.53582e-13
3.53582e-13
3.53582e-13
3.53582e-13
3.53582e-13
3.53582e-13
3.53582e-13
3.53582e-13
3.53582e-13
3.53582e-13
3.53582e-13
3.53582e-13
3.53582e-13
3.53582e-13
3.53582e-13
3.53582e-13
3.53582e-13
3.53582e-13
3.53582e-13
3.53582e-13
3.53582e-13
3.53582e-13
3.53582e-13
3.53582e-13
3.53582e-13
3.53582e-13
3.53582e-13
3.53582e-13
3.53582e-13
3.53582e-13
3.53582e-13
3.53582e-13
3.53582e-13
3.53582e-13
3.53582e-13
3.53582e-13
3.53582e-13
3.53582e-13
3.53582e-13
3.53582e-13
3.53582e-13
3.53582e-13
3.53582e-13
3.53582e-13
3.53582e-13
3.53582e-13
3.53582e-13
3.53582e-13
3.53582e-13
3.53582e-13
3.53582e-13
3.53582e-13
3.53582e-13
3.53582e-13
3.53582e-13
3.53582e-13
3.53582e-13
3.53582e-13
3.53582e-13
3.53582e-13
3.53582e-13
3.53582e-13
3.53582e-13
3.53582e-13
3.53582e-13
3.53582e-13
3.53582e-13
3.53582e-13
3.53582e-13
3.53582e-13
3.53582e-13
3.53582e-13
3.53582e-13
3.53582e-13
3.53582e-13
3.53582e-13
3.53582e-13
3.53582e-13
3.53582e-13
3.53582e-13
3.53582e-13
3.53582e-13
3.53582e-13
3.53582e-13
3.53582e-13
3.53582e-13
3.53582e-13
3.53582e-13
3.53582e-13
3.53582e-13
3.53582e-13
3.53582e-13
3.53582e-13
3.53582e-13
3.53582e-13
3.53582e-13
3.53582e-13
3.53582e-13
3.53582e-13
3.53582e-13
3.53582e-13
3.53582e-13
3.53582e-13
3.53582e-13
3.53582e-13
3.53582e-13
3.53582e-13
3.53582e-13
3.53582e-13
3.53582e-13
3.53582e-13
3.53582e-13
3.53582e-13
3.53582e-13
3.53582e-13
3.53582e-13
3.53582e-13
3.53582e-13
3.53582e-13
3.53582e-13
3.53582e-13
3.53582e-13
3.53582e-13
3.53582e-13
3.53582e-13
3.53582e-13
3.53582e-13
3.53582e-13
3.53582e-13
3.53582e-13
3.535820001e-13
3.535820002e-13
3.535820009e-13
3.535820036e-13
3.535820138e-13
3.535820493e-13
3.535821662e-13
3.535825268e-13
3.535835639e-13
3.535863324e-13
3.535931476e-13
3.536084592e-13
3.536392969e-13
3.536929728e-13
3.537662529e-13
3.537919304e-13
3.537994764e-13
3.538073169e-13
3.538154663e-13
3.538239353e-13
3.538327357e-13
3.538418805e-13
3.538513839e-13
3.538612617e-13
3.538715303e-13
3.538822072e-13
3.538933106e-13
3.539048598e-13
3.539168748e-13
3.539293768e-13
3.539423879e-13
3.539559316e-13
3.539700324e-13
3.539847163e-13
3.540000107e-13
3.540159442e-13
3.540325472e-13
3.540498517e-13
3.540678913e-13
3.540867016e-13
3.541063202e-13
3.541267865e-13
3.541481424e-13
3.54170432e-13
3.541937018e-13
3.542180009e-13
3.542433814e-13
3.542698981e-13
3.542976089e-13
3.543265751e-13
3.543568614e-13
3.543885363e-13
3.544216722e-13
3.544563454e-13
3.544926369e-13
3.545306321e-13
3.545704215e-13
3.546121007e-13
3.546557707e-13
3.547015384e-13
3.54749517e-13
3.547998259e-13
3.548525917e-13
3.549079479e-13
3.54966036e-13
3.550270053e-13
3.550910139e-13
3.551582288e-13
3.552288266e-13
3.553029938e-13
3.553809276e-13
3.554628363e-13
3.555489401e-13
3.556394715e-13
3.55734676e-13
3.558348128e-13
3.559401558e-13
3.560509938e-13
3.561676316e-13
3.56290391e-13
3.564196113e-13
3.565556503e-13
3.566988852e-13
3.568497136e-13
3.570085545e-13
3.571758493e-13
3.573520629e-13
3.575376845e-13
3.577332294e-13
3.579392394e-13
3.581562848e-13
3.583849649e-13
3.586259099e-13
3.588797821e-13
3.591472769e-13
3.594291249e-13
3.597260928e-13
3.600389851e-13
3.60368646e-13
3.607159603e-13
3.610818555e-13
3.614673036e-13
3.618733225e-13
3.623009777e-13
3.627513845e-13
3.632257094e-13
3.637251722e-13
3.642510478e-13
3.648046682e-13
3.653874245e-13
3.660007686e-13
3.666462155e-13
3.673253453e-13
3.680398051e-13
3.687913114e-13
3.695816517e-13
3.70412687e-13
3.712863536e-13
3.722046658e-13
3.731697172e-13
3.741836834e-13
3.75248824e-13
3.763674845e-13
3.775420987e-13
3.787751905e-13
3.800693761e-13
3.814273659e-13
3.828519666e-13
3.843460831e-13
3.859127203e-13
3.875549851e-13
3.892760882e-13
3.910793457e-13
3.929681808e-13
3.949461253e-13
3.970168215e-13
3.991840232e-13
4.014515971e-13
4.038235242e-13
4.063039008e-13
4.088969396e-13
4.116069705e-13
4.144384415e-13
4.17395919e-13
4.20484089e-13
4.237077567e-13
4.270718471e-13
4.305814051e-13
4.342415952e-13
4.380577016e-13
4.420351271e-13
4.461793934e-13
4.504961393e-13
4.549911206e-13
4.596702086e-13
4.645393884e-13
4.696047581e-13
4.748725264e-13
4.803490109e-13
4.860406361e-13
4.919539307e-13
4.980955256e-13
5.044721504e-13
5.110906313e-13
5.179578871e-13
5.250809266e-13
5.324668445e-13
5.40122818e-13
5.480561025e-13
5.56274028e-13
5.647839943e-13
5.735934668e-13
5.82709972e-13
5.921410922e-13
6.018944611e-13
6.119777584e-13
6.223987047e-13
6.331650562e-13
6.442845991e-13
6.557651443e-13
6.676145216e-13
6.798405743e-13
6.92451153e-13
7.054541104e-13
7.188572952e-13
7.326685467e-13
7.468956884e-13
7.615465231e-13
7.766288268e-13
7.921503435e-13
8.081187793e-13
8.245417978e-13
8.414270143e-13
8.587819916e-13
8.766142347e-13
8.949311864e-13
9.137402236e-13
9.330486528e-13
9.528637067e-13
9.731925414e-13
9.940422329e-13
1.015419775e-12
1.037332078e-12
1.059785965e-12
1.082788173e-12
1.106345354e-12
1.130464071e-12
1.155150801e-12
1.180411936e-12
1.206253786e-12
1.232682582e-12
1.259704477e-12
1.287325553e-12
1.315551826e-12
1.34438925e-12
1.373843725e-12
1.403921106e-12
1.434627211e-12
1.465967831e-12
1.497948739e-12
1.530575706e-12
1.563854508e-12
1.597790948e-12
1.632390864e-12
1.66766015e-12
1.703604772e-12
1.740230788e-12
1.777544368e-12
1.815551817e-12
1.854259594e-12
1.893674344e-12
1.933802915e-12
1.974652394e-12
2.01623013e-12
2.058543768e-12
2.101601279e-12
2.145410997e-12
2.18998165e-12
2.235322401e-12
2.281442884e-12
2.328353248e-12
2.376064195e-12
2.424587028e-12
2.473933695e-12
2.524116838e-12
2.575149842e-12
2.627046886e-12
2.679822999e-12
2.733494114e-12
2.788077127e-12
2.843589953e-12
2.900051594e-12
2.957482198e-12
3.015903129e-12
3.07533703e-12
3.135807902e-12
3.197341167e-12
3.259963752e-12
3.323704161e-12
3.388592558e-12
3.454660848e-12
3.521942763e-12
3.59047395e-12
3.660292058e-12
3.731436836e-12
3.803950225e-12
3.877876458e-12
3.95326216e-12
4.030156454e-12
4.108611069e-12
4.188680448e-12
4.270421864e-12
4.353895536e-12
4.439164752e-12
4.52629599e-12
4.61535905e-12
4.70642719e-12
4.799577267e-12
4.894889843e-12
4.992449404e-12
5.092344461e-12
5.194667676e-12
5.299516063e-12
5.406991141e-12
5.517199112e-12
5.630251036e-12
5.746263016e-12
5.865356381e-12
5.98765788e-12
6.113299872e-12
6.242420536e-12
6.375164076e-12
6.511680954e-12
6.652128063e-12
6.796669044e-12
6.945474499e-12
7.098722271e-12
7.256597687e-12
7.419293899e-12
7.587012183e-12
7.759962202e-12
7.938362338e-12
8.122440058e-12
8.312432284e-12
8.508585789e-12
8.71115761e-12
8.920415493e-12
9.136638363e-12
9.36011684e-12
9.59115378e-12
9.830064877e-12
1.00771793e-11
1.03328404e-11
1.059740647e-11
1.087125162e-11
1.115476669e-11
1.144836027e-11
1.175245991e-11
1.206751337e-11
1.239399013e-11
1.273238296e-11
1.308320988e-11
1.344701623e-11
1.382437715e-11
1.421590031e-11
1.462222921e-11
1.504404682e-11
1.548207991e-11
1.593710404e-11
1.640994937e-11
1.690150739e-11
1.741273888e-11
1.794468313e-11
1.84984688e-11
1.907532665e-11
1.967660454e-11
2.030378501e-11
2.095850607e-11
2.164258565e-11
2.235805052e-11
2.310717032e-11
2.389249796e-11
2.471691715e-11
2.558369886e-11
2.649656792e-11
2.745978197e-11
2.847822497e-11
2.955751785e-11
3.070414971e-11
3.192563324e-11
3.323068889e-11
3.46294633e-11
3.613378813e-11
3.775748705e-11
3.951673971e-11
4.143051341e-11
4.352107507e-11
4.581459841e-11
4.834188417e-11
5.113921442e-11
5.424936592e-11
5.772281217e-11
6.161914942e-11
6.600878816e-11
7.097495981e-11
7.661609704e-11
8.304865759e-11
9.041047392e-11
9.886472674e-11
1.086046585e-10
1.198591644e-10
1.328994246e-10
1.480467706e-10
1.656820163e-10
1.862565241e-10
2.103053319e-10
2.384627191e-10
2.714806695e-10
3.102507652e-10
3.558301495e-10
4.094723142e-10
4.726636041e-10
5.471664987e-10
6.350709271e-10
7.388550997e-10
8.614576198e-10
1.006362957e-09
1.177702748e-09
1.38037585e-09
1.620190587e-09
1.904033293e-09
2.240067962e-09
2.637972731e-09
3.109219926e-09
3.667407649e-09
4.3286523e-09
5.112053126e-09
6.040241877e-09
7.140032968e-09
8.443192281e-09
9.987345929e-09
1.181705404e-08
1.398507892e-08
1.655388215e-08
1.959739073e-08
2.320307959e-08
2.74744252e-08
3.253379425e-08
3.852584143e-08
4.562150229e-08
5.40226799e-08
6.39677393e-08
7.573793981e-08
8.966495354e-08
1.06139638e-07
1.256222521e-07
1.486543257e-07
1.75872418e-07
2.080240176e-07
2.459858636e-07
2.907849777e-07
3.436227159e-07
4.05902147e-07
4.792590625e-07
5.655968966e-07
6.671257979e-07
7.864060226e-07
9.263957287e-07
1.090503114e-06
1.282642676e-06
1.507295155e-06
1.769570467e-06
2.075272647e-06
2.430965495e-06
2.844037286e-06
3.322762568e-06
3.876358807e-06
4.515035382e-06
5.250032356e-06
6.093646467e-06
7.05924198e-06
8.161244459e-06
9.415116049e-06
1.083731165e-05
1.244521612e-05
1.425706362e-05
1.629184084e-05
1.856917687e-05
2.110922249e-05
2.393252243e-05
2.70598837e-05
3.05122431e-05
3.431053644e-05
3.847557116e-05
4.302790467e-05
4.798772565e-05
5.337474171e-05
5.920806981e-05
6.55061304e-05
7.228654956e-05
7.956608311e-05
8.73606104e-05
9.568152659e-05
0.0001045520877
0.0001139642624
0.0001239866787
0.0001346251244
0.0001458958947
0.0001575307441
0.0001696421651
0.0001821411002
0.0001948804639
0.0002076743787
0.0002203743771
0.0002329616797
0.0002455387894
0.000258217679
0.0002710497837
0.0002840100217
0.0002972578359
0.0003102504697
0.00032308803
0.0003356394955
0.0003478770849
0.0003592435358
0.0003694885812
0.0003780307108
0.0003840754771
0.0003866176878
0.0003846631627
0.0003773798742
0.0003643327289
0.0003456460405
0.0003220397261
0.0002946542535
0.000265159424
0.0002348730325
0.0002053508509
0.0001774864627
0.0001519383154
0.0001290498308
0.0001089200277
9.137852677e-05
7.621997363e-05
6.334974942e-05
5.250947563e-05
4.343530688e-05
3.587748024e-05
2.960854294e-05
2.442340584e-05
2.014352435e-05
1.661624558e-05
1.374382267e-05
1.13756553e-05
9.410909841e-06
7.795010192e-06
6.464675643e-06
5.368220047e-06
4.463522514e-06
3.716236672e-06
3.098537555e-06
2.587041305e-06
2.163161808e-06
1.8114692e-06
1.519302319e-06
1.276266078e-06
1.073821211e-06
9.049487185e-07
7.638752384e-07
6.458482619e-07
5.46952186e-07
4.639578025e-07
3.941991846e-07
3.354729617e-07
2.859559012e-07
2.441374471e-07
2.087644778e-07
1.787960433e-07
1.533662527e-07
1.317538203e-07
1.133570551e-07
9.767329988e-08
8.428201128e-08
7.283082186e-08
6.302404502e-08
5.461318363e-08
4.738908366e-08
4.11754395e-08
3.582341109e-08
3.120715673e-08
2.722012081e-08
2.377194449e-08
2.078589139e-08
1.819669932e-08
1.594878491e-08
1.39947412e-08
1.22940784e-08
1.081216701e-08
9.519349506e-09
8.390192637e-09
7.402857104e-09
6.538565536e-09
5.781152721e-09
5.116684886e-09
4.533136957e-09
4.020118605e-09
3.568641392e-09
3.170920577e-09
2.820206213e-09
2.510639019e-09
2.237127229e-09
1.99524124e-09
1.781123383e-09
1.591410536e-09
1.423167683e-09
1.273830814e-09
1.141157769e-09
1.023185904e-09
9.181955694e-10
8.246785797e-10
7.413109603e-10
6.669293648e-10
6.005106489e-10
5.411541596e-10
4.880663639e-10
4.405474935e-10
3.979799311e-10
3.598180999e-10
3.255796547e-10
2.948377989e-10
2.672145782e-10
2.4237502e-10
2.200220091e-10
1.998918013e-10
1.817500939e-10
1.653885794e-10
1.506219215e-10
1.372850983e-10
1.252310682e-10
1.143287146e-10
1.044610375e-10
9.552355943e-11
8.742291978e-11
8.007563393e-11
7.340699743e-11
6.735011735e-11
6.18450553e-11
5.683806883e-11
5.228093944e-11
4.813037668e-11
4.434748964e-11
4.089731761e-11
3.77484132e-11
3.487247163e-11
3.224400102e-11
2.98400288e-11
2.763984024e-11
2.562474531e-11
2.377787076e-11
2.208397452e-11
2.052928e-11
1.910132792e-11
1.778884386e-11
1.658161976e-11
1.547040778e-11
1.44468253e-11
1.350326966e-11
1.263284177e-11
1.18292775e-11
1.108688616e-11
1.040049512e-11
9.765400101e-12
9.177320441e-12
8.632358849e-12
8.126965148e-12
7.657903633e-12
7.222223629e-12
6.817232953e-12
6.440473961e-12
6.089701924e-12
5.762865496e-12
5.458089066e-12
5.173656793e-12
4.907998173e-12
4.659674967e-12
4.427369369e-12
4.209873288e-12
4.006078625e-12
3.814968464e-12
3.635609073e-12
3.467142647e-12
3.308780719e-12
3.159798166e-12
3.019527766e-12
2.88735525e-12
2.76271479e-12
2.645084904e-12
2.533984718e-12
2.428970565e-12
2.329632879e-12
2.235593373e-12
2.146502452e-12
2.062036861e-12
1.981897532e-12
1.905807621e-12
1.833510709e-12
1.764769164e-12
1.699362636e-12
1.637086682e-12
1.577751509e-12
1.521180824e-12
1.467210769e-12
1.415688965e-12
1.366473612e-12
1.319432686e-12
1.274443181e-12
1.23139043e-12
1.190167471e-12
1.150674469e-12
1.11281818e-12
1.076511467e-12
1.041672844e-12
1.008226063e-12
9.760997323e-13
9.452269642e-13
9.155450502e-13
8.869951626e-13
8.595220778e-13
8.330739227e-13
8.076019395e-13
7.830602684e-13
7.594057475e-13
7.365977272e-13
7.145978996e-13
6.933701393e-13
6.728803572e-13
6.530963647e-13
6.33987748e-13
6.155257515e-13
5.9768317e-13
5.804342484e-13
5.63754589e-13
5.476210653e-13
5.320117419e-13
5.169057998e-13
5.022834676e-13
4.881259575e-13
4.74415405e-13
4.611348134e-13
4.482680024e-13
4.357995593e-13
4.237147945e-13
4.119996989e-13
4.006409058e-13
3.896256533e-13
3.78941751e-13
3.68577548e-13
3.585219029e-13
3.48764156e-13
3.392941037e-13
3.301019735e-13
3.211784017e-13
3.125144116e-13
3.041013938e-13
2.95931087e-13
2.879955608e-13
2.802871988e-13
2.727986831e-13
2.655229796e-13
2.584533244e-13
2.515832108e-13
2.449063768e-13
2.384167941e-13
2.32108657e-13
2.259763718e-13
2.20014548e-13
2.142179884e-13
2.085816812e-13
2.03100791e-13
1.977706521e-13
1.925867605e-13
1.875447673e-13
1.82640472e-13
1.778698165e-13
1.732288792e-13
1.687138694e-13
1.643211219e-13
1.600470923e-13
1.558883516e-13
1.518415826e-13
1.479035747e-13
1.440712201e-13
1.403415102e-13
1.367115314e-13
1.331784617e-13
1.297395676e-13
1.263922002e-13
1.23133793e-13
1.19961858e-13
1.168739837e-13
1.138678317e-13
1.109411346e-13
1.080916934e-13
1.053173752e-13
1.026161106e-13
9.998589185e-14
9.742477075e-14
9.493085655e-14
9.250231404e-14
9.013736169e-14
8.783426997e-14
8.559135959e-14
8.340699985e-14
8.127960709e-14
7.920764322e-14
7.71896142e-14
7.522406869e-14
7.330959663e-14
7.144482807e-14
6.962843178e-14
6.785911416e-14
6.613561797e-14
6.445672135e-14
6.282123657e-14
6.122800915e-14
5.967591675e-14
5.816386824e-14
5.669080278e-14
5.52556888e-14
5.385752328e-14
5.249533078e-14
5.116816279e-14
4.987509672e-14
4.86152353e-14
4.738770576e-14
4.619165916e-14
4.502626968e-14
4.389073393e-14
4.278427034e-14
4.170611854e-14
4.065553868e-14
3.963181091e-14
3.863423482e-14
3.766212877e-14
3.671482954e-14
3.579169168e-14
3.489208702e-14
3.401540427e-14
3.316104841e-14
3.232844032e-14
3.151701639e-14
3.072622795e-14
2.995554094e-14
2.92044355e-14
2.847240554e-14
2.775895843e-14
2.706361457e-14
2.638590702e-14
2.572538119e-14
2.508159449e-14
2.445411604e-14
2.384252625e-14
2.324641659e-14
2.266538925e-14
2.209905691e-14
2.154704241e-14
2.100897847e-14
2.048450739e-14
1.997328089e-14
1.947495975e-14
1.898921364e-14
1.851572085e-14
1.805416808e-14
1.760425013e-14
1.716566983e-14
1.673813772e-14
1.632137182e-14
1.591509753e-14
1.551904735e-14
1.513296077e-14
1.475658397e-14
1.438966975e-14
1.403197728e-14
1.368327199e-14
1.334332536e-14
1.301191479e-14
1.268882342e-14
1.237384e-14
1.206675871e-14
1.176737903e-14
1.147550564e-14
1.119094822e-14
1.091352136e-14
1.06430444e-14
1.037934137e-14
1.012224078e-14
9.871575569e-15
9.627182935e-15
9.388904272e-15
9.156585042e-15
8.93007465e-15
8.709226378e-15
8.493897266e-15
8.283947982e-15
8.079242786e-15
7.879649381e-15
7.68503888e-15
7.495285674e-15
7.310267364e-15
7.129864664e-15
6.953961333e-15
6.782444098e-15
6.615202579e-15
6.452129192e-15
6.293119094e-15
6.138070119e-15
5.986882693e-15
5.83945979e-15
5.695706833e-15
5.555531641e-15
5.418844382e-15
5.28555751e-15
5.155585709e-15
5.028845822e-15
4.905256778e-15
4.784739581e-15
4.667217227e-15
4.552614671e-15
4.440858763e-15
4.331878212e-15
4.22560352e-15
4.121966956e-15
4.020902503e-15
3.9223458e-15
3.826234127e-15
3.732506331e-15
3.641102812e-15
3.551965483e-15
3.465037725e-15
3.380264328e-15
3.297591482e-15
3.216966725e-15
3.138338927e-15
3.061658265e-15
2.986876139e-15
2.913945186e-15
2.842819232e-15
2.773453279e-15
2.705803442e-15
2.639826944e-15
2.575482092e-15
2.512728243e-15
2.451525751e-15
2.391835989e-15
2.333621298e-15
2.276844958e-15
2.221471169e-15
2.167465034e-15
2.114792535e-15
2.06342051e-15
2.013316608e-15
1.964449301e-15
1.916787858e-15
1.870302315e-15
1.824963452e-15
1.780742783e-15
1.737612536e-15
1.695545632e-15
1.654515673e-15
1.614496922e-15
1.575464279e-15
1.537393281e-15
1.500260064e-15
1.464041366e-15
1.42871451e-15
1.394257383e-15
1.360648425e-15
1.327866614e-15
1.295891446e-15
1.264702937e-15
1.234281596e-15
1.204608418e-15
1.175664879e-15
1.147432902e-15
1.119894867e-15
1.093033593e-15
1.066832329e-15
1.041274742e-15
1.016344905e-15
9.920272823e-16
9.683067176e-16
9.451684374e-16
9.225980337e-16
9.005814577e-16
8.791050118e-16
8.581553385e-16
8.377193967e-16
8.177844811e-16
7.983381902e-16
7.793684383e-16
7.60863425e-16
7.428116551e-16
7.252019032e-16
7.080232319e-16
6.912649571e-16
6.749166598e-16
6.58968181e-16
6.434096074e-16
6.282312617e-16
6.134237079e-16
5.989777304e-16
5.84884337e-16
5.711347523e-16
5.577204114e-16
5.446329497e-16
5.318641988e-16
5.1940619e-16
5.072511337e-16
4.953914208e-16
4.838196212e-16
4.725284697e-16
4.615108584e-16
4.507598508e-16
4.40268657e-16
4.300306287e-16
4.200392721e-16
4.102882163e-16
4.007712298e-16
3.914822057e-16
3.824151596e-16
3.735642199e-16
3.649236216e-16
3.564877073e-16
3.48250915e-16
3.40207777e-16
3.323529223e-16
3.246810621e-16
3.171869784e-16
3.098655347e-16
3.027116658e-16
2.957203704e-16
2.888867203e-16
2.82205849e-16
2.756729497e-16
2.692832815e-16
2.630321725e-16
2.569150214e-16
2.509273119e-16
2.450646036e-16
2.393225456e-16
2.336968877e-16
2.281834568e-16
2.227781502e-16
2.174768875e-16
2.122755211e-16
1.707218085e-16
1.26941242e-16
9.600143023e-17
7.400796397e-17
5.835766295e-17
4.723122733e-17
3.93368012e-17
3.375286072e-17
2.982116792e-17
2.707138462e-17
2.516774298e-17
2.387096554e-17
2.301057524e-17
2.246547338e-17
2.214982363e-17
2.200292572e-17
2.198206451e-17
2.205731019e-17
2.220782436e-17
2.241926683e-17
2.26818759e-17
2.298918352e-17
2.333707526e-17
2.372305622e-17
2.41458383e-17
2.460497008e-17
2.510059525e-17
2.563329233e-17
2.620393954e-17
2.68136284e-17
2.746358526e-17
2.815512824e-17
2.888961485e-17
2.966840224e-17
3.049281505e-17
3.136410498e-17
3.228342654e-17
3.325179205e-17
3.427003964e-17
3.53387959e-17
3.645843776e-17
3.762905212e-17
3.885039992e-17
4.012187511e-17
4.144247076e-17
4.281074332e-17
4.422478572e-17
4.568220475e-17
4.718010145e-17
4.871506353e-17
5.028316568e-17
5.187998296e-17
5.350060926e-17
5.513969723e-17
5.679149968e-17
5.844992789e-17
6.010862579e-17
6.176103902e-17
6.340051738e-17
6.502038588e-17
6.661406497e-17
6.817514797e-17
6.96975177e-17
7.117542104e-17
7.260356304e-17
7.397718382e-17
7.529211893e-17
7.654485193e-17
7.773255093e-17
7.885308924e-17
7.990505113e-17
8.088772303e-17
8.180106912e-17
8.264569678e-17
8.342280738e-17
8.413414059e-17
8.478191243e-17
8.536874593e-17
8.589759858e-17
8.637169401e-17
8.67944477e-17
8.71694042e-17
8.750016979e-17
8.779035713e-17
8.804353189e-17
8.826317066e-17
8.845262026e-17
8.861506911e-17
8.875352262e-17
8.887078568e-17
8.896945256e-17
8.905190078e-17
8.912029044e-17
8.917656781e-17
8.922247236e-17
8.925954675e-17
8.928914843e-17
8.931246342e-17
8.933052055e-17
8.934420657e-17
8.935428081e-17
8.936138985e-17
8.936608147e-17
8.936881757e-17
8.936998622e-17
8.936991257e-17
8.93688683e-17
8.936708024e-17
8.936473751e-17
8.93619977e-17
8.93589919e-17
8.935582896e-17
8.935259885e-17
8.934937527e-17
8.93462179e-17
8.9343174e-17
8.934027988e-17
8.933756186e-17
8.933503748e-17
8.933271617e-17
8.933060022e-17
8.932868567e-17
8.93269631e-17
8.932541867e-17
8.932403499e-17
8.932279205e-17
8.932166831e-17
8.932064148e-17
8.931968944e-17
8.931879107e-17
8.931792688e-17
8.931707963e-17
8.931623466e-17
8.931538027e-17
8.931450786e-17
8.931361176e-17
8.931268939e-17
8.931174078e-17
8.931076838e-17
8.93097766e-17
8.930877138e-17
8.930775979e-17
8.93067495e-17
8.930574837e-17
8.930476407e-17
8.930380378e-17
8.930287378e-17
8.930197944e-17
8.930112493e-17
8.930031328e-17
8.929954623e-17
8.929882448e-17
8.929814763e-17
8.929751439e-17
8.929692274e-17
8.929637012e-17
8.929585355e-17
8.929536987e-17
8.929491576e-17
8.929448807e-17
8.929408377e-17
8.92937001e-17
8.929333459e-17
8.929298519e-17
8.929265012e-17
8.929232801e-17
8.929201784e-17
8.929171891e-17
8.929143079e-17
8.92911533e-17
8.929088651e-17
8.929063063e-17
8.929038606e-17
8.92901533e-17
8.928993295e-17
8.928972568e-17
8.928953223e-17
8.92893534e-17
8.928918999e-17
8.928904282e-17
8.928891268e-17
8.928880027e-17
8.928870632e-17
8.928863141e-17
8.928857605e-17
8.928854054e-17
8.928852507e-17
8.928852967e-17
8.928855408e-17
8.928859792e-17
8.928866052e-17
8.928874102e-17
8.928883834e-17
8.928895115e-17
8.928907792e-17
8.9289217e-17
8.928936648e-17
8.928952441e-17
8.928968872e-17
8.92898572e-17
8.929002771e-17
8.929019803e-17
8.929036603e-17
8.929052962e-17
8.929068679e-17
8.929083568e-17
8.929097455e-17
8.929110182e-17
8.929121614e-17
8.929131633e-17
8.929140137e-17
8.929147052e-17
8.929152323e-17
8.929155916e-17
8.929157812e-17
8.929158019e-17
8.929156563e-17
8.929153481e-17
8.929148828e-17
8.929142676e-17
8.929135107e-17
8.929126212e-17
8.92911609e-17
8.929104848e-17
8.929092598e-17
8.929079453e-17
8.929065532e-17
8.929050951e-17
8.929035822e-17
8.929020262e-17
8.929004381e-17
8.928988284e-17
8.928972074e-17
8.928955852e-17
8.928939699e-17
8.928923708e-17
8.928907953e-17
8.928892505e-17
8.928877429e-17
8.92886278e-17
8.92884861e-17
8.928834958e-17
8.928821863e-17
8.928809349e-17
8.928797446e-17
8.92878618e-17
8.928775598e-17
8.928765805e-17
8.928757096e-17
8.928750313e-17
)
;

boundaryField
{
    inlet
    {
        type            fixedValue;
        value           uniform 0;
    }
    outlet
    {
        type            zeroGradient;
    }
    wall
    {
        type            empty;
    }
}


// ************************************************************************* //
