/*--------------------------------*- C++ -*----------------------------------*\
  =========                 |
  \\      /  F ield         | OpenFOAM: The Open Source CFD Toolbox
   \\    /   O peration     | Website:  https://openfoam.org
    \\  /    A nd           | Version:  7
     \\/     M anipulation  |
\*---------------------------------------------------------------------------*/
FoamFile
{
    version     2.0;
    format      ascii;
    class       volScalarField;
    location    "0.000558243009";
    object      CH2CO;
}
// * * * * * * * * * * * * * * * * * * * * * * * * * * * * * * * * * * * * * //

dimensions      [0 0 0 0 0 0 0];

internalField   nonuniform List<scalar> 
1500
(
1.902604191e-14
7.441323128e-14
1.535471029e-13
2.304055036e-13
2.875981331e-13
3.224327073e-13
3.40478117e-13
3.486214677e-13
3.518771622e-13
3.530457252e-13
3.534264671e-13
3.535401381e-13
3.535714834e-13
3.535795214e-13
3.535814495e-13
3.535818843e-13
3.535819769e-13
3.535819956e-13
3.535819992e-13
3.535819999e-13
3.53582e-13
3.53582e-13
3.53582e-13
3.53582e-13
3.53582e-13
3.53582e-13
3.53582e-13
3.53582e-13
3.53582e-13
3.53582e-13
3.53582e-13
3.53582e-13
3.53582e-13
3.53582e-13
3.53582e-13
3.53582e-13
3.53582e-13
3.53582e-13
3.53582e-13
3.53582e-13
3.53582e-13
3.53582e-13
3.53582e-13
3.53582e-13
3.53582e-13
3.53582e-13
3.53582e-13
3.53582e-13
3.53582e-13
3.53582e-13
3.53582e-13
3.53582e-13
3.53582e-13
3.53582e-13
3.53582e-13
3.53582e-13
3.53582e-13
3.53582e-13
3.53582e-13
3.53582e-13
3.53582e-13
3.53582e-13
3.53582e-13
3.53582e-13
3.53582e-13
3.53582e-13
3.53582e-13
3.53582e-13
3.53582e-13
3.53582e-13
3.53582e-13
3.53582e-13
3.53582e-13
3.53582e-13
3.53582e-13
3.53582e-13
3.53582e-13
3.53582e-13
3.53582e-13
3.53582e-13
3.53582e-13
3.53582e-13
3.53582e-13
3.53582e-13
3.53582e-13
3.53582e-13
3.53582e-13
3.53582e-13
3.53582e-13
3.53582e-13
3.53582e-13
3.53582e-13
3.53582e-13
3.53582e-13
3.53582e-13
3.53582e-13
3.53582e-13
3.53582e-13
3.53582e-13
3.53582e-13
3.53582e-13
3.53582e-13
3.53582e-13
3.53582e-13
3.53582e-13
3.53582e-13
3.53582e-13
3.53582e-13
3.53582e-13
3.53582e-13
3.53582e-13
3.53582e-13
3.53582e-13
3.53582e-13
3.53582e-13
3.53582e-13
3.53582e-13
3.53582e-13
3.53582e-13
3.53582e-13
3.53582e-13
3.53582e-13
3.53582e-13
3.53582e-13
3.53582e-13
3.53582e-13
3.53582e-13
3.53582e-13
3.53582e-13
3.53582e-13
3.53582e-13
3.53582e-13
3.53582e-13
3.53582e-13
3.53582e-13
3.53582e-13
3.53582e-13
3.53582e-13
3.53582e-13
3.53582e-13
3.53582e-13
3.53582e-13
3.53582e-13
3.53582e-13
3.53582e-13
3.53582e-13
3.53582e-13
3.53582e-13
3.53582e-13
3.53582e-13
3.53582e-13
3.53582e-13
3.53582e-13
3.53582e-13
3.53582e-13
3.53582e-13
3.53582e-13
3.53582e-13
3.53582e-13
3.53582e-13
3.53582e-13
3.53582e-13
3.53582e-13
3.53582e-13
3.53582e-13
3.53582e-13
3.53582e-13
3.53582e-13
3.53582e-13
3.53582e-13
3.53582e-13
3.53582e-13
3.53582e-13
3.53582e-13
3.53582e-13
3.53582e-13
3.53582e-13
3.53582e-13
3.53582e-13
3.53582e-13
3.53582e-13
3.53582e-13
3.53582e-13
3.53582e-13
3.53582e-13
3.53582e-13
3.53582e-13
3.53582e-13
3.53582e-13
3.53582e-13
3.53582e-13
3.53582e-13
3.53582e-13
3.53582e-13
3.53582e-13
3.53582e-13
3.53582e-13
3.53582e-13
3.53582e-13
3.53582e-13
3.53582e-13
3.53582e-13
3.53582e-13
3.53582e-13
3.53582e-13
3.53582e-13
3.53582e-13
3.53582e-13
3.53582e-13
3.53582e-13
3.53582e-13
3.53582e-13
3.53582e-13
3.53582e-13
3.53582e-13
3.53582e-13
3.53582e-13
3.53582e-13
3.53582e-13
3.53582e-13
3.53582e-13
3.53582e-13
3.53582e-13
3.53582e-13
3.53582e-13
3.53582e-13
3.53582e-13
3.53582e-13
3.53582e-13
3.53582e-13
3.53582e-13
3.53582e-13
3.53582e-13
3.53582e-13
3.53582e-13
3.535820001e-13
3.535820002e-13
3.535820009e-13
3.535820036e-13
3.535820138e-13
3.535820492e-13
3.535821661e-13
3.535825262e-13
3.535835619e-13
3.535863266e-13
3.535931319e-13
3.5360842e-13
3.536392086e-13
3.536927966e-13
3.537659546e-13
3.537915851e-13
3.537991227e-13
3.538069508e-13
3.538150858e-13
3.538235398e-13
3.538323247e-13
3.538414536e-13
3.538509406e-13
3.538608014e-13
3.538710523e-13
3.538817108e-13
3.538927949e-13
3.53904324e-13
3.53916318e-13
3.53928798e-13
3.539417863e-13
3.539553061e-13
3.53969382e-13
3.539840399e-13
3.539993071e-13
3.540152122e-13
3.540317854e-13
3.540490588e-13
3.540670659e-13
3.540858422e-13
3.541054252e-13
3.541258542e-13
3.541471711e-13
3.541694197e-13
3.541926466e-13
3.542169009e-13
3.542422342e-13
3.542687015e-13
3.542963604e-13
3.543252722e-13
3.543555015e-13
3.543871164e-13
3.544201892e-13
3.544547963e-13
3.544910182e-13
3.545289403e-13
3.545686528e-13
3.546102511e-13
3.546538361e-13
3.546995143e-13
3.547473987e-13
3.547976084e-13
3.548502697e-13
3.54905516e-13
3.549634881e-13
3.550243353e-13
3.550882153e-13
3.551552945e-13
3.552257493e-13
3.552997657e-13
3.553775405e-13
3.554592816e-13
3.555452085e-13
3.556355533e-13
3.557305609e-13
3.5583049e-13
3.559356137e-13
3.560462203e-13
3.56162614e-13
3.562851158e-13
3.564140641e-13
3.56549816e-13
3.566927478e-13
3.568432564e-13
3.570017598e-13
3.571686983e-13
3.573445357e-13
3.575297605e-13
3.577248865e-13
3.579304546e-13
3.581470336e-13
3.583752216e-13
3.586156475e-13
3.588689721e-13
3.591358893e-13
3.594171281e-13
3.597134537e-13
3.600256689e-13
3.603546159e-13
3.607011778e-13
3.610662802e-13
3.61450893e-13
3.618560319e-13
3.622827604e-13
3.627321913e-13
3.632054889e-13
3.637038705e-13
3.642286083e-13
3.647810319e-13
3.653625293e-13
3.659745497e-13
3.666186052e-13
3.672962726e-13
3.680091961e-13
3.687590886e-13
3.695477343e-13
3.703769907e-13
3.712487905e-13
3.721651441e-13
3.731281413e-13
3.741399537e-13
3.752028367e-13
3.763191317e-13
3.77491268e-13
3.787217651e-13
3.800132345e-13
3.81368382e-13
3.827900093e-13
3.842810165e-13
3.858444033e-13
3.874832715e-13
3.892008263e-13
3.910003784e-13
3.928853455e-13
3.948592538e-13
3.969257398e-13
3.990885513e-13
4.01351549e-13
4.03718708e-13
4.061941183e-13
4.087819864e-13
4.114866357e-13
4.143125079e-13
4.172641628e-13
4.203462798e-13
4.235636575e-13
4.269212141e-13
4.304239878e-13
4.340771364e-13
4.378859369e-13
4.418557856e-13
4.45992197e-13
4.503008031e-13
4.547873528e-13
4.594577103e-13
4.64317854e-13
4.693738749e-13
4.746319749e-13
4.800984648e-13
4.857797623e-13
4.916823895e-13
4.978129704e-13
5.041782282e-13
5.107849826e-13
5.17640146e-13
5.247507209e-13
5.32123796e-13
5.397665423e-13
5.476862095e-13
5.558901218e-13
5.643856737e-13
5.73180325e-13
5.822815972e-13
5.916970676e-13
6.014343651e-13
6.11501165e-13
6.219051835e-13
6.326541729e-13
6.437559154e-13
6.552182185e-13
6.670489088e-13
6.792558263e-13
6.918468192e-13
7.048297377e-13
7.182124283e-13
7.320027284e-13
7.4620846e-13
7.608374248e-13
7.758973977e-13
7.913961221e-13
8.073413038e-13
8.237406064e-13
8.406016456e-13
8.579319845e-13
8.757391292e-13
8.940305237e-13
9.128135463e-13
9.320955052e-13
9.518836352e-13
9.721850946e-13
9.930069619e-13
1.014356234e-12
1.036239823e-12
1.058664556e-12
1.081637175e-12
1.105164332e-12
1.129252595e-12
1.153908445e-12
1.179138279e-12
1.204948409e-12
1.231345071e-12
1.25833442e-12
1.285922544e-12
1.314115462e-12
1.34291913e-12
1.372339453e-12
1.40238229e-12
1.433053461e-12
1.464358759e-12
1.49630396e-12
1.528894835e-12
1.562137165e-12
1.596036752e-12
1.630599433e-12
1.665831104e-12
1.701737729e-12
1.738325365e-12
1.775600178e-12
1.81356847e-12
1.852236697e-12
1.891611495e-12
1.931699709e-12
1.972508416e-12
2.014044957e-12
2.056316965e-12
2.099332401e-12
2.143099583e-12
2.187627225e-12
2.232924473e-12
2.279000942e-12
2.325866759e-12
2.373532605e-12
2.422009757e-12
2.471310136e-12
2.521446354e-12
2.572431763e-12
2.624280509e-12
2.677007582e-12
2.730628875e-12
2.78516124e-12
2.840622547e-12
2.897031747e-12
2.954408936e-12
3.01277542e-12
3.072153784e-12
3.132567962e-12
3.194043311e-12
3.256606684e-12
3.320286511e-12
3.385112874e-12
3.451117594e-12
3.518334312e-12
3.586798582e-12
3.656547954e-12
3.727622072e-12
3.800062766e-12
3.873914155e-12
3.949222743e-12
4.026037527e-12
4.104410102e-12
4.184394772e-12
4.266048666e-12
4.349431851e-12
4.434607455e-12
4.521641793e-12
4.610604492e-12
4.70156863e-12
4.794610872e-12
4.889811595e-12
4.987255074e-12
5.087029601e-12
5.189227625e-12
5.293945931e-12
5.4012858e-12
5.511353187e-12
5.624258894e-12
5.740118757e-12
5.859053825e-12
5.981190557e-12
6.106661014e-12
6.235603062e-12
6.368160585e-12
6.504483703e-12
6.644728977e-12
6.789059687e-12
6.937646066e-12
7.09066557e-12
7.248303138e-12
7.410751507e-12
7.578211516e-12
7.750892385e-12
7.929012041e-12
8.112797477e-12
8.302485123e-12
8.498321243e-12
8.700562344e-12
8.909475624e-12
9.125339441e-12
9.348443825e-12
9.579091022e-12
9.817596089e-12
1.006428754e-11
1.031950804e-11
1.058361517e-11
1.08569823e-11
1.11399995e-11
1.143307456e-11
1.173663419e-11
1.205112528e-11
1.237701637e-11
1.27147993e-11
1.306499107e-11
1.342813597e-11
1.380480801e-11
1.419561369e-11
1.460119525e-11
1.502223435e-11
1.545945634e-11
1.591363526e-11
1.638559966e-11
1.687623928e-11
1.738651301e-11
1.791745808e-11
1.847020093e-11
1.904596988e-11
1.964611006e-11
2.027210106e-11
2.092557755e-11
2.16083538e-11
2.232245239e-11
2.307013834e-11
2.385395925e-11
2.467679288e-11
2.554190335e-11
2.64530077e-11
2.741435464e-11
2.843081782e-11
2.950800631e-11
3.065239545e-11
3.187148199e-11
3.31739679e-11
3.456997825e-11
3.60713196e-11
3.769178626e-11
3.944752361e-11
4.135745883e-11
4.344381183e-11
4.573270122e-11
4.825486312e-11
5.10465037e-11
5.415031064e-11
5.761665275e-11
6.150500329e-11
6.588562819e-11
7.084158891e-11
7.647111835e-11
8.289043936e-11
9.023710825e-11
9.867398109e-11
1.083939187e-10
1.196253678e-10
1.326389814e-10
1.477554719e-10
1.653549255e-10
1.858878506e-10
2.098882819e-10
2.379893217e-10
2.709415728e-10
3.09634997e-10
3.551248385e-10
4.086623629e-10
4.717313069e-10
5.460910963e-10
6.338280855e-10
7.374163033e-10
8.597894633e-10
1.00442632e-09
1.175451838e-09
1.37775708e-09
1.617141285e-09
1.900480191e-09
2.235925452e-09
2.633140838e-09
3.10358197e-09
3.660827533e-09
4.320971387e-09
5.103086637e-09
6.029774749e-09
7.127815088e-09
8.428933032e-09
9.970707945e-09
1.179764608e-08
1.396244776e-08
1.652750338e-08
1.956665835e-08
2.316729431e-08
2.743278129e-08
3.248536492e-08
3.846956262e-08
4.555615483e-08
5.394687012e-08
6.387987814e-08
7.563622067e-08
8.954732918e-08
1.060037972e-07
1.254655965e-07
1.484739492e-07
1.756650883e-07
2.077861648e-07
2.457135766e-07
2.904740142e-07
3.432685303e-07
4.05499944e-07
4.788038842e-07
5.650837557e-07
6.665498696e-07
7.857629137e-07
9.256818441e-07
1.089716148e-06
1.281782255e-06
1.506363671e-06
1.768574145e-06
2.074222885e-06
2.429880536e-06
2.842944273e-06
3.321700045e-06
3.875379715e-06
4.514210613e-06
5.249454906e-06
6.093436218e-06
7.059551125e-06
8.162263543e-06
9.417080592e-06
1.084050923e-05
1.244999382e-05
1.426383554e-05
1.630109566e-05
1.858148491e-05
2.112524225e-05
2.395300617e-05
2.708568191e-05
3.054430766e-05
3.434992233e-05
3.852343671e-05
4.308551005e-05
4.805643006e-05
5.345599885e-05
5.930342199e-05
6.561720224e-05
7.241504323e-05
7.971378063e-05
8.7529387e-05
9.587488906e-05
0.0001047712066
0.0001142186181
0.0001242685025
0.0001349250899
0.0001461944067
0.0001578653321
0.0001700094883
0.0001825376834
0.0001953031794
0.0002081180626
0.0002208309372
0.0002334264914
0.0002460161492
0.0002587115331
0.0002715546785
0.0002845201538
0.0002977691281
0.0003107517344
0.0003235758861
0.0003361012425
0.0003483074712
0.0003596241311
0.0003698124188
0.0003782843866
0.0003842740459
0.0003867204503
0.0003846577055
0.0003772483906
0.0003640566863
0.0003452180544
0.0003214700604
0.0002938814348
0.0002642765707
0.0002339351825
0.0002043940683
0.0001765422808
0.0001510362605
0.0001282188556
0.0001081897599
9.067887387e-05
7.557807271e-05
6.277740466e-05
5.200997078e-05
4.300579754e-05
3.551051523e-05
2.929272555e-05
2.414817979e-05
1.989865882e-05
1.639490952e-05
1.356261268e-05
1.122887217e-05
9.282678293e-06
7.683978167e-06
6.369705579e-06
5.28791238e-06
4.396227206e-06
3.660196927e-06
3.052484306e-06
2.549002277e-06
2.131776148e-06
1.785574647e-06
1.497923371e-06
1.258593384e-06
1.059188297e-06
8.928093691e-07
7.53783067e-07
6.374390088e-07
5.399287572e-07
4.580778378e-07
3.892648162e-07
3.313224418e-07
2.824567887e-07
2.411810862e-07
2.062615214e-07
1.766728414e-07
1.515619338e-07
1.302179337e-07
1.120476662e-07
9.655545095e-08
8.332647596e-08
7.201309613e-08
6.232352787e-08
5.401251046e-08
4.687358234e-08
4.073268518e-08
3.54428607e-08
3.087984775e-08
2.693842204e-08
2.352934918e-08
2.057684476e-08
1.801645425e-08
1.57932809e-08
1.386050229e-08
1.217812703e-08
1.071195104e-08
9.432680284e-09
8.31519229e-09
7.33791368e-09
6.482294714e-09
5.732365133e-09
5.074358183e-09
4.496391932e-09
3.988198767e-09
3.540895483e-09
3.146787621e-09
2.799202707e-09
2.492347974e-09
2.221188783e-09
1.981344627e-09
1.769000044e-09
1.580828223e-09
1.41392541e-09
1.26575452e-09
1.134096606e-09
1.017009048e-09
9.127894845e-10
8.19944666e-10
7.371635329e-10
6.632939149e-10
5.973223463e-10
5.383565628e-10
4.856103069e-10
4.383901258e-10
3.960838874e-10
3.581507825e-10
3.241126127e-10
2.935461903e-10
2.660767033e-10
2.41371917e-10
2.191371026e-10
1.991105971e-10
1.810599139e-10
1.647783301e-10
1.500818934e-10
1.368067908e-10
1.248070365e-10
1.13952437e-10
1.041267993e-10
9.52263514e-11
8.715834986e-11
7.983984989e-11
7.319661944e-11
6.716217897e-11
6.167695195e-11
5.668751277e-11
5.214592033e-11
4.800912717e-11
4.42384552e-11
4.079913023e-11
3.765986827e-11
3.479250783e-11
3.217168263e-11
2.977453027e-11
2.758043268e-11
2.557078464e-11
2.372878737e-11
2.203926422e-11
2.048849607e-11
1.906407414e-11
1.775476846e-11
1.655041007e-11
1.54417856e-11
1.442054273e-11
1.34791056e-11
1.261059871e-11
1.180877882e-11
1.106797366e-11
1.038302694e-11
9.749248836e-12
9.16237151e-12
8.618509052e-12
8.114121406e-12
7.645981872e-12
7.211147798e-12
6.806934163e-12
6.43088972e-12
6.080775463e-12
5.754545177e-12
5.450327852e-12
5.166411784e-12
4.901230191e-12
4.653348189e-12
4.421451004e-12
4.20433328e-12
4.000889399e-12
3.81010469e-12
3.631047465e-12
3.462861775e-12
3.304760841e-12
3.156021082e-12
3.015976683e-12
2.884014658e-12
2.759570357e-12
2.642123376e-12
2.531193829e-12
2.426338957e-12
2.327150028e-12
2.233249521e-12
2.144288549e-12
2.059944508e-12
1.979918929e-12
1.903935522e-12
1.831738381e-12
1.763090346e-12
1.697771503e-12
1.635577815e-12
1.576319864e-12
1.5198217e-12
1.465919791e-12
1.414462051e-12
1.36530696e-12
1.318322747e-12
1.273386646e-12
1.230384209e-12
1.189208679e-12
1.149760411e-12
1.111946339e-12
1.075679488e-12
1.040878527e-12
1.007467348e-12
9.753746928e-13
9.445337955e-13
9.148820622e-13
8.863607712e-13
8.589147983e-13
8.324923622e-13
8.07044791e-13
7.825263048e-13
7.588938162e-13
7.361067452e-13
7.141268486e-13
6.929180613e-13
6.724463505e-13
6.526795802e-13
6.335873854e-13
6.151410566e-13
5.97313431e-13
5.800787937e-13
5.634127843e-13
5.472923112e-13
5.316954715e-13
5.166014768e-13
5.019905846e-13
4.878440335e-13
4.741439843e-13
4.608734637e-13
4.480163136e-13
4.355571417e-13
4.234812777e-13
4.117747311e-13
4.004241521e-13
3.894167949e-13
3.787404844e-13
3.683835838e-13
3.58334965e-13
3.485839812e-13
3.391204404e-13
3.299345816e-13
3.210170516e-13
3.123588837e-13
3.039514779e-13
2.95786582e-13
2.878562738e-13
2.801529451e-13
2.726692855e-13
2.653982682e-13
2.583331361e-13
2.514673888e-13
2.447947707e-13
2.383092593e-13
2.320050541e-13
2.258765673e-13
2.199184129e-13
2.141253989e-13
2.084925177e-13
2.030149387e-13
1.97688e-13
1.925072016e-13
1.874681986e-13
1.825667941e-13
1.777989334e-13
1.731606983e-13
1.686483012e-13
1.6425808e-13
1.599864932e-13
1.558301149e-13
1.517856301e-13
1.478498311e-13
1.440196127e-13
1.402919685e-13
1.366639872e-13
1.331328492e-13
1.29695823e-13
1.263502618e-13
1.23093601e-13
1.199233546e-13
1.168371128e-13
1.138325392e-13
1.10907368e-13
1.08059402e-13
1.052865096e-13
1.025866231e-13
9.995773631e-14
9.739790241e-14
9.490523202e-14
9.247789129e-14
9.011410001e-14
8.781212986e-14
8.557030283e-14
8.338698936e-14
8.126060697e-14
7.918961865e-14
7.717253145e-14
7.520789505e-14
7.329430041e-14
7.143037851e-14
6.96147991e-14
6.784626947e-14
6.612353332e-14
6.44453696e-14
6.281059146e-14
6.121804516e-14
5.966660922e-14
5.815519322e-14
5.668273703e-14
5.524820985e-14
5.385060934e-14
5.248896078e-14
5.116231623e-14
4.986975377e-14
4.861037674e-14
4.7383313e-14
4.618771418e-14
4.502275501e-14
4.388763264e-14
4.278156603e-14
4.170379531e-14
4.065358116e-14
3.963020423e-14
3.863296454e-14
3.766118093e-14
3.671419062e-14
3.57913486e-14
3.489202712e-14
3.401561528e-14
3.316151847e-14
3.232915798e-14
3.151797051e-14
3.07274078e-14
2.995693613e-14
2.920603598e-14
2.84742016e-14
2.776094069e-14
2.706577393e-14
2.638823468e-14
2.572786868e-14
2.508423362e-14
2.445689885e-14
2.384544508e-14
2.324946404e-14
2.26685582e-14
2.210234048e-14
2.155043393e-14
2.101247149e-14
2.048809574e-14
1.997695858e-14
1.947872102e-14
1.899305293e-14
1.85196328e-14
1.805814751e-14
1.760829209e-14
1.716976953e-14
1.674229051e-14
1.632557328e-14
1.591934336e-14
1.552333345e-14
1.513728317e-14
1.476093884e-14
1.439405343e-14
1.403638626e-14
1.368770289e-14
1.334777494e-14
1.301637995e-14
1.269330115e-14
1.237832742e-14
1.207125307e-14
1.17718777e-14
1.148000608e-14
1.119544801e-14
1.09180182e-14
1.064753608e-14
1.038382577e-14
1.012671588e-14
9.876039441e-15
9.631633736e-15
9.393340248e-15
9.161004518e-15
8.93447604e-15
8.713608164e-15
8.498257997e-15
8.288286297e-15
8.083557396e-15
7.883939059e-15
7.689302459e-15
7.499522051e-15
7.314475506e-15
7.134043592e-15
6.958110119e-15
6.786561874e-15
6.61928853e-15
6.456182555e-15
6.297139155e-15
6.142056219e-15
5.990834223e-15
5.843376154e-15
5.699587497e-15
5.559376116e-15
5.422652228e-15
5.289328324e-15
5.159319107e-15
5.032541449e-15
4.908914333e-15
4.78835879e-15
4.670797861e-15
4.556156518e-15
4.444361649e-15
4.335341974e-15
4.229028033e-15
4.125352126e-15
4.024248249e-15
3.925652073e-15
3.829500906e-15
3.735733604e-15
3.644290597e-15
3.555113796e-15
3.468146615e-15
3.383333866e-15
3.30062176e-15
3.219957841e-15
3.14129101e-15
3.064571445e-15
2.989750575e-15
2.916781033e-15
2.845616671e-15
2.776212486e-15
2.708524621e-15
2.642510323e-15
2.578127894e-15
2.51533669e-15
2.454097095e-15
2.394370484e-15
2.336119194e-15
2.279306529e-15
2.223896707e-15
2.169854814e-15
2.117146855e-15
2.065739652e-15
2.015600877e-15
1.966699007e-15
1.919003309e-15
1.872483827e-15
1.827111348e-15
1.782857384e-15
1.739694167e-15
1.697594626e-15
1.656532362e-15
1.616481641e-15
1.577417379e-15
1.539315094e-15
1.502150939e-15
1.465901649e-15
1.43054455e-15
1.39605753e-15
1.362419018e-15
1.329608006e-15
1.297603988e-15
1.266386978e-15
1.235937479e-15
1.206236496e-15
1.177265501e-15
1.149006416e-15
1.121441621e-15
1.094553934e-15
1.068326604e-15
1.042743296e-15
1.017788078e-15
9.934454163e-16
9.697001556e-16
9.465375166e-16
9.239430977e-16
9.019028419e-16
8.804030471e-16
8.594303526e-16
8.389717214e-16
8.190144457e-16
7.995461266e-16
7.805546669e-16
7.620282708e-16
7.439554338e-16
7.263249362e-16
7.091258226e-16
6.923474174e-16
6.759793045e-16
6.600113154e-16
6.444335399e-16
6.292362997e-16
6.144101486e-16
5.999458745e-16
5.858344803e-16
5.720671808e-16
5.586354123e-16
5.455308065e-16
5.327452049e-16
5.202706305e-16
5.080992839e-16
4.962235557e-16
4.846360131e-16
4.733293862e-16
4.622965763e-16
4.515306383e-16
4.410247815e-16
4.307723614e-16
4.207668756e-16
4.110019561e-16
4.014713629e-16
3.921689875e-16
3.830888479e-16
3.74225066e-16
3.655718807e-16
3.571236343e-16
3.48874765e-16
3.408198062e-16
3.329533842e-16
3.252702082e-16
3.177650618e-16
3.104328077e-16
3.032683795e-16
2.962667765e-16
2.894230552e-16
2.827323356e-16
2.761897967e-16
2.697906607e-16
2.635302056e-16
2.574037591e-16
2.514066984e-16
2.455344406e-16
2.397824407e-16
2.341461823e-16
2.286211899e-16
2.232030145e-16
2.17887239e-16
2.126695308e-16
1.709694944e-16
1.271827626e-16
9.618148258e-17
7.41378299e-17
5.845013659e-17
4.729616051e-17
3.938169149e-17
3.37833236e-17
2.984129877e-17
2.70841733e-17
2.517531367e-17
2.387481095e-17
2.301174865e-17
2.24646928e-17
2.214756735e-17
2.199954353e-17
2.197775735e-17
2.205221823e-17
2.220203848e-17
2.241283668e-17
2.267483671e-17
2.298154186e-17
2.332883427e-17
2.371421098e-17
2.413637753e-17
2.459487593e-17
2.508984899e-17
2.562187276e-17
2.619182082e-17
2.680078266e-17
2.74499843e-17
2.814074233e-17
2.887441236e-17
2.965235164e-17
3.047588492e-17
3.134626542e-17
3.226464837e-17
3.323204857e-17
3.424930782e-17
3.531705691e-17
3.643567808e-17
3.760526448e-17
3.88255834e-17
4.009603853e-17
4.141563048e-17
4.278292825e-17
4.4196033e-17
4.565256348e-17
4.714963406e-17
4.868384034e-17
5.025127244e-17
5.184751227e-17
5.346766822e-17
5.510640126e-17
5.675797116e-17
5.841629605e-17
6.007502606e-17
6.172760985e-17
6.336739685e-17
6.498771275e-17
6.658197438e-17
6.81437705e-17
6.966697587e-17
7.114582902e-17
7.257502482e-17
7.394979063e-17
7.526594976e-17
7.651997185e-17
7.770901059e-17
7.8830925e-17
7.988428499e-17
8.086836325e-17
8.17831106e-17
8.262912206e-17
8.340758778e-17
8.412023721e-17
8.476927743e-17
8.535732432e-17
8.588732938e-17
8.636251063e-17
8.678628137e-17
8.716218359e-17
8.749382275e-17
8.77848115e-17
8.803871679e-17
8.825901687e-17
8.844906191e-17
8.861204278e-17
8.875096883e-17
8.886864894e-17
8.896768147e-17
8.905044819e-17
8.911911362e-17
8.917562807e-17
8.922173515e-17
8.925898141e-17
8.928872799e-17
8.931216425e-17
8.933032226e-17
8.934409155e-17
8.935423405e-17
8.936139859e-17
8.9366135e-17
8.93689069e-17
8.937010388e-17
8.937005233e-17
8.936902509e-17
8.936724987e-17
8.936491655e-17
8.936218332e-17
8.935918184e-17
8.935602135e-17
8.935279216e-17
8.934956827e-17
8.934640957e-17
8.934336353e-17
8.93404666e-17
8.933774526e-17
8.933521714e-17
8.933289179e-17
8.933077156e-17
8.93288526e-17
8.932712552e-17
8.932557655e-17
8.932418833e-17
8.932294089e-17
8.932181271e-17
8.93207815e-17
8.931982516e-17
8.931892255e-17
8.931805419e-17
8.931720279e-17
8.93163537e-17
8.931549519e-17
8.931461861e-17
8.93137183e-17
8.931279163e-17
8.931183863e-17
8.931086172e-17
8.930986529e-17
8.93088553e-17
8.930783881e-17
8.930682348e-17
8.930581721e-17
8.930482766e-17
8.930386204e-17
8.930292665e-17
8.930202687e-17
8.930116693e-17
8.930034984e-17
8.92995774e-17
8.929885033e-17
8.929816823e-17
8.929752986e-17
8.929693319e-17
8.929637571e-17
8.929585443e-17
8.92953662e-17
8.929490773e-17
8.929447587e-17
8.929406757e-17
8.92936801e-17
8.929331099e-17
8.929295818e-17
8.929261991e-17
8.929229477e-17
8.929198179e-17
8.929168023e-17
8.929138965e-17
8.92911099e-17
8.929084103e-17
8.929058321e-17
8.929033688e-17
8.929010251e-17
8.928988069e-17
8.928967208e-17
8.928947743e-17
8.928929749e-17
8.928913304e-17
8.928898493e-17
8.92888539e-17
8.928874068e-17
8.928864593e-17
8.928857023e-17
8.928851409e-17
8.928847779e-17
8.928846151e-17
8.928846525e-17
8.928848876e-17
8.928853164e-17
8.928859321e-17
8.928867262e-17
8.928876875e-17
8.928888029e-17
8.928900572e-17
8.928914335e-17
8.928929134e-17
8.928944768e-17
8.928961033e-17
8.928977709e-17
8.928994585e-17
8.929011437e-17
8.929028057e-17
8.929044235e-17
8.929059772e-17
8.929074487e-17
8.929088205e-17
8.929100773e-17
8.929112057e-17
8.929121943e-17
8.929130329e-17
8.929137147e-17
8.929142341e-17
8.929145882e-17
8.929147754e-17
8.929147967e-17
8.929146547e-17
8.929143535e-17
8.92913899e-17
8.929132982e-17
8.929125595e-17
8.929116922e-17
8.929107062e-17
8.929096123e-17
8.929084217e-17
8.929071455e-17
8.929057957e-17
8.929043838e-17
8.929029208e-17
8.929014183e-17
8.928998869e-17
8.928983372e-17
8.928967789e-17
8.928952219e-17
8.928936742e-17
8.928921446e-17
8.928906401e-17
8.928891674e-17
8.928877327e-17
8.928863411e-17
8.928849973e-17
8.928837049e-17
8.928824673e-17
8.928812865e-17
8.928801651e-17
8.928791053e-17
8.928781114e-17
8.928771933e-17
8.928763804e-17
8.928757565e-17
)
;

boundaryField
{
    inlet
    {
        type            fixedValue;
        value           uniform 0;
    }
    outlet
    {
        type            zeroGradient;
    }
    wall
    {
        type            empty;
    }
}


// ************************************************************************* //
