/*--------------------------------*- C++ -*----------------------------------*\
  =========                 |
  \\      /  F ield         | OpenFOAM: The Open Source CFD Toolbox
   \\    /   O peration     | Website:  https://openfoam.org
    \\  /    A nd           | Version:  7
     \\/     M anipulation  |
\*---------------------------------------------------------------------------*/
FoamFile
{
    version     2.0;
    format      ascii;
    class       volScalarField;
    location    "0.000558243009";
    object      CH2OH_0;
}
// * * * * * * * * * * * * * * * * * * * * * * * * * * * * * * * * * * * * * //

dimensions      [0 0 0 0 0 0 0];

internalField   nonuniform List<scalar> 
1500
(
8.88078453e-37
3.203407577e-36
5.915914069e-36
7.965275199e-36
9.161290025e-36
9.764263701e-36
1.004045321e-35
1.015649847e-35
1.020082394e-35
1.021578722e-35
1.02197127e-35
1.021975375e-35
1.021850474e-35
1.021690068e-35
1.021531196e-35
1.021389817e-35
1.021271795e-35
1.02117727e-35
1.021103463e-35
1.021046737e-35
1.021003881e-35
1.020972617e-35
1.020951521e-35
1.020939644e-35
1.020936082e-35
1.020939681e-35
1.020948936e-35
1.02096206e-35
1.020977165e-35
1.020992471e-35
1.021006473e-35
1.021018045e-35
1.021026465e-35
1.021031376e-35
1.02103272e-35
1.02103066e-35
1.021025507e-35
1.021017667e-35
1.021007598e-35
1.020995787e-35
1.020982732e-35
1.020968923e-35
1.020954819e-35
1.020940832e-35
1.020927302e-35
1.020914482e-35
1.020902532e-35
1.020891516e-35
1.020881418e-35
1.020872155e-35
1.020863604e-35
1.02085562e-35
1.020848061e-35
1.020840808e-35
1.020833773e-35
1.02082691e-35
1.020820219e-35
1.020813742e-35
1.020807558e-35
1.020801779e-35
1.020796542e-35
1.020791997e-35
1.020788302e-35
1.020785615e-35
1.020784083e-35
1.020783838e-35
1.020784988e-35
1.02078761e-35
1.020791748e-35
1.020797401e-35
1.02080453e-35
1.020813051e-35
1.020822835e-35
1.020833714e-35
1.020845484e-35
1.020857911e-35
1.020870738e-35
1.020883693e-35
1.020896498e-35
1.020908876e-35
1.020920562e-35
1.020931309e-35
1.020940892e-35
1.020949119e-35
1.020955832e-35
1.020960909e-35
1.02096427e-35
1.020965873e-35
1.020965716e-35
1.020963836e-35
1.020960306e-35
1.020955231e-35
1.020948747e-35
1.020941016e-35
1.020932221e-35
1.020922561e-35
1.020912246e-35
1.02090149e-35
1.020890507e-35
1.020879503e-35
1.020868674e-35
1.020858194e-35
1.020848216e-35
1.020838865e-35
1.020830237e-35
1.020822393e-35
1.020815362e-35
1.02080914e-35
1.020803694e-35
1.020798961e-35
1.020794858e-35
1.020791285e-35
1.020788129e-35
1.020785276e-35
1.020782611e-35
1.020780028e-35
1.020777433e-35
1.02077475e-35
1.020771922e-35
1.020768912e-35
1.020765705e-35
1.020762305e-35
1.020758736e-35
1.020755032e-35
1.020751244e-35
1.020747426e-35
1.020743638e-35
1.020739939e-35
1.020736389e-35
1.02073304e-35
1.020729941e-35
1.020727135e-35
1.020724659e-35
1.020722547e-35
1.020720827e-35
1.020719528e-35
1.020718677e-35
1.020718302e-35
1.020718434e-35
1.020719105e-35
1.02072035e-35
1.020722206e-35
1.020724708e-35
1.02072789e-35
1.020731783e-35
1.02073641e-35
1.020741787e-35
1.020747918e-35
1.020754793e-35
1.02076239e-35
1.02077067e-35
1.02077958e-35
1.02078905e-35
1.020798998e-35
1.020809331e-35
1.020819944e-35
1.020830726e-35
1.020841563e-35
1.020852339e-35
1.020862939e-35
1.020873253e-35
1.020883178e-35
1.020892617e-35
1.020901482e-35
1.020909695e-35
1.020917188e-35
1.020923899e-35
1.020929777e-35
1.020934776e-35
1.020938859e-35
1.020941991e-35
1.020944145e-35
1.020945299e-35
1.020945435e-35
1.020944542e-35
1.020942617e-35
1.020939665e-35
1.020935701e-35
1.020930757e-35
1.020924875e-35
1.02091812e-35
1.020910574e-35
1.020902344e-35
1.020893562e-35
1.020884386e-35
1.020875002e-35
1.020865618e-35
1.020856467e-35
1.020847797e-35
1.020839864e-35
1.020832926e-35
1.020827224e-35
1.02082298e-35
1.020820377e-35
1.020819555e-35
1.020820602e-35
1.020823552e-35
1.020828389e-35
1.020835051e-35
1.020843446e-35
1.020853463e-35
1.020864986e-35
1.020877908e-35
1.020892137e-35
1.020907592e-35
1.020924195e-35
1.02094185e-35
1.020960413e-35
1.020979666e-35
1.020999283e-35
1.021018807e-35
1.021037652e-35
1.021055113e-35
1.021070415e-35
1.021082789e-35
1.021091571e-35
1.021096325e-35
1.021096973e-35
1.021093915e-35
1.021088121e-35
1.021081171e-35
1.021075233e-35
1.021072949e-35
1.021077241e-35
1.021091024e-35
1.021116862e-35
1.021156566e-35
1.021210811e-35
1.021278786e-35
1.021357959e-35
1.021443987e-35
1.021530843e-35
1.021611161e-35
1.021676834e-35
1.021719842e-35
1.02173325e-35
1.021712328e-35
1.021655667e-35
1.021566186e-35
1.021451923e-35
1.021326549e-35
1.021209598e-35
1.021126611e-35
1.02110953e-35
1.02119782e-35
1.02144032e-35
1.021896184e-35
1.022627742e-35
1.023666884e-35
1.024910146e-35
1.025409053e-35
1.025537043e-35
1.025666688e-35
1.025799656e-35
1.025936374e-35
1.026077023e-35
1.026221745e-35
1.026370688e-35
1.026524014e-35
1.026681894e-35
1.02684451e-35
1.027012054e-35
1.027184726e-35
1.027362736e-35
1.027546306e-35
1.027735666e-35
1.02793106e-35
1.028132746e-35
1.028340993e-35
1.028556084e-35
1.028778319e-35
1.029008012e-35
1.029245494e-35
1.029491113e-35
1.029745235e-35
1.030008246e-35
1.03028055e-35
1.030562576e-35
1.03085477e-35
1.031157607e-35
1.03147158e-35
1.031797214e-35
1.032135057e-35
1.032485687e-35
1.03284971e-35
1.033227765e-35
1.033620524e-35
1.03402869e-35
1.034453006e-35
1.03489425e-35
1.035353241e-35
1.035830839e-35
1.036327947e-35
1.036845513e-35
1.037384534e-35
1.037946056e-35
1.038531176e-35
1.039141048e-35
1.039776881e-35
1.040439944e-35
1.04113157e-35
1.041853156e-35
1.042606166e-35
1.043392138e-35
1.044212683e-35
1.04506949e-35
1.045964329e-35
1.046899056e-35
1.047875615e-35
1.048896042e-35
1.049962471e-35
1.051077136e-35
1.052242376e-35
1.053460641e-35
1.054734495e-35
1.05606662e-35
1.057459824e-35
1.058917045e-35
1.060441356e-35
1.062035972e-35
1.063704252e-35
1.065449713e-35
1.067276028e-35
1.069187039e-35
1.07118676e-35
1.073279386e-35
1.0754693e-35
1.077761083e-35
1.080159519e-35
1.082669604e-35
1.085296558e-35
1.088045831e-35
1.090923113e-35
1.093934345e-35
1.097085732e-35
1.100383747e-35
1.10383515e-35
1.107446994e-35
1.111226642e-35
1.115181777e-35
1.119320416e-35
1.123650926e-35
1.128182037e-35
1.132922857e-35
1.13788289e-35
1.143072052e-35
1.148500688e-35
1.154179592e-35
1.160120025e-35
1.166333737e-35
1.172832986e-35
1.179630561e-35
1.186739808e-35
1.194174649e-35
1.201949613e-35
1.210079859e-35
1.218581205e-35
1.22747016e-35
1.23676395e-35
1.246480554e-35
1.256638735e-35
1.267258079e-35
1.278359029e-35
1.289962922e-35
1.302092035e-35
1.314769623e-35
1.328019966e-35
1.341868411e-35
1.356341427e-35
1.37146665e-35
1.38727294e-35
1.403790434e-35
1.421050603e-35
1.439086316e-35
1.457931898e-35
1.4776232e-35
1.498197664e-35
1.519694398e-35
1.542154244e-35
1.565619862e-35
1.590135803e-35
1.615748601e-35
1.64250685e-35
1.6704613e-35
1.69966495e-35
1.73017314e-35
1.762043656e-35
1.795336831e-35
1.830115652e-35
1.866445871e-35
1.90439612e-35
1.944038029e-35
1.985446347e-35
2.028699068e-35
2.07387756e-35
2.1210667e-35
2.170355006e-35
2.221834786e-35
2.275602273e-35
2.331757782e-35
2.390405857e-35
2.451655428e-35
2.515619974e-35
2.582417682e-35
2.652171617e-35
2.725009895e-35
2.801065854e-35
2.880478236e-35
2.963391367e-35
3.049955346e-35
3.140326232e-35
3.23466624e-35
3.333143935e-35
3.435934436e-35
3.54321962e-35
3.655188328e-35
3.77203658e-35
3.893967792e-35
4.02119299e-35
4.153931042e-35
4.29240888e-35
4.436861736e-35
4.587533379e-35
4.744676355e-35
4.908552236e-35
5.07943187e-35
5.257595644e-35
5.44333374e-35
5.636946414e-35
5.838744268e-35
6.049048536e-35
6.268191381e-35
6.496516193e-35
6.734377902e-35
6.982143301e-35
7.240191382e-35
7.508913678e-35
7.788714627e-35
8.080011944e-35
8.383237016e-35
8.698835305e-35
9.02726678e-35
9.369006365e-35
9.72454441e-35
1.009438718e-34
1.047905741e-34
1.087909478e-34
1.129505661e-34
1.172751838e-34
1.217707441e-34
1.264433861e-34
1.312994512e-34
1.363454918e-34
1.41588279e-34
1.470348119e-34
1.526923267e-34
1.585683072e-34
1.64670495e-34
1.710069011e-34
1.775858186e-34
1.844158348e-34
1.915058461e-34
1.988650719e-34
2.065030713e-34
2.144297595e-34
2.226554257e-34
2.311907531e-34
2.400468389e-34
2.492352162e-34
2.58767878e-34
2.686573019e-34
2.789164767e-34
2.895589313e-34
3.005987647e-34
3.12050679e-34
3.239300134e-34
3.362527817e-34
3.490357112e-34
3.622962852e-34
3.760527873e-34
3.903243495e-34
4.051310028e-34
4.204937318e-34
4.364345321e-34
4.529764724e-34
4.701437594e-34
4.87961809e-34
5.064573195e-34
5.256583523e-34
5.455944159e-34
5.662965567e-34
5.877974548e-34
6.101315271e-34
6.333350367e-34
6.574462095e-34
6.825053587e-34
7.085550179e-34
7.356400824e-34
7.638079611e-34
7.931087374e-34
8.235953421e-34
8.553237373e-34
8.883531137e-34
9.227461005e-34
9.58568991e-34
9.958919828e-34
1.034789436e-33
1.075340149e-33
1.117627658e-33
1.161740553e-33
1.207772833e-33
1.255824199e-33
1.305999891e-33
1.358408913e-33
1.413175212e-33
1.470429863e-33
1.530310913e-33
1.592956172e-33
1.658515969e-33
1.72715199e-33
1.799036858e-33
1.874354615e-33
1.953301486e-33
2.036086753e-33
2.122933755e-33
2.214081079e-33
2.309784459e-33
2.410321137e-33
2.5159951e-33
2.627110192e-33
2.74399647e-33
2.867008867e-33
2.996522824e-33
3.132948223e-33
3.276729468e-33
3.428340027e-33
3.588287842e-33
3.757119226e-33
3.935422424e-33
4.123831421e-33
4.323030172e-33
4.533757318e-33
4.756811437e-33
4.993056919e-33
5.243430535e-33
5.508948806e-33
5.790716281e-33
6.089934859e-33
6.407914305e-33
6.746084127e-33
7.106007046e-33
7.48939426e-33
7.898122815e-33
8.334255383e-33
8.80006285e-33
9.298050133e-33
9.830985768e-33
1.040193588e-32
1.101430323e-32
1.167187227e-32
1.237886106e-32
1.313998138e-32
1.396050842e-32
1.484636161e-32
1.580419872e-32
1.684152548e-32
1.796682371e-32
1.918970113e-32
2.052106723e-32
2.197333985e-32
2.356068867e-32
2.529932259e-32
2.720783007e-32
2.930758297e-32
3.162321702e-32
3.418320529e-32
3.702054431e-32
4.01735777e-32
4.368698786e-32
4.761299389e-32
5.20128036e-32
5.695837948e-32
6.253459442e-32
6.884187265e-32
7.599943736e-32
8.414931972e-32
9.346132662e-32
1.041392208e-31
1.164284393e-31
1.306257706e-31
1.470915365e-31
1.662649853e-31
1.886838214e-31
2.150090763e-31
2.460569089e-31
2.828394209e-31
3.266172485e-31
3.789675974e-31
4.418726062e-31
5.178345846e-31
6.10026937e-31
7.224926923e-31
8.604068651e-31
1.030424867e-30
1.241147596e-30
1.503745732e-30
1.832802706e-30
2.247460212e-30
2.772985415e-30
3.442930648e-30
4.302132362e-30
5.410908921e-30
6.850985477e-30
8.733928043e-30
1.121325357e-29
1.450196908e-29
1.889819127e-29
2.482288103e-29
3.287586634e-29
4.391964775e-29
5.920565354e-29
8.056569657e-29
1.107040526e-28
1.536454819e-28
2.154258484e-28
3.051614216e-28
4.367110722e-28
6.312692647e-28
9.21423897e-28
1.357524575e-27
2.017702452e-27
3.023672223e-27
4.56570638e-27
6.942184667e-27
1.062234332e-26
1.634601436e-26
2.528244296e-26
3.928362669e-26
6.128916217e-26
9.597441274e-26
1.507902573e-25
2.376344199e-25
3.755439172e-25
5.950427077e-25
9.451800061e-25
1.504956306e-24
2.401929578e-24
3.842614075e-24
6.162317436e-24
9.90714775e-24
1.59695026e-23
2.581289078e-23
4.184669602e-23
6.805389955e-23
1.110478403e-22
1.818607351e-22
2.989875849e-22
4.935969515e-22
8.185055836e-22
1.363733577e-21
2.283641326e-21
3.844588102e-21
6.509197994e-21
1.10863644e-20
1.900007684e-20
3.277436661e-20
5.691363824e-20
9.951022084e-20
1.751956462e-19
3.105843291e-19
5.543538229e-19
9.959679918e-19
1.800530217e-18
3.273751673e-18
5.983128666e-18
1.098393952e-17
2.024043978e-17
3.740993157e-17
6.930017039e-17
1.285741488e-16
2.387633028e-16
4.435525191e-16
8.23979093e-16
1.530324016e-15
2.841343175e-15
5.274424334e-15
9.790357842e-15
1.817245459e-14
3.372312893e-14
6.25383163e-14
1.158952894e-13
2.152176549e-13
4.049358239e-13
7.91568739e-13
1.568545467e-12
3.125618697e-12
6.232106681e-12
1.237815686e-11
2.441017515e-11
4.75784213e-11
9.162249853e-11
1.735975502e-10
3.226511484e-10
5.813166128e-10
9.996286359e-10
1.654796225e-09
2.630036512e-09
4.004299438e-09
5.859716458e-09
8.31282223e-09
1.156132631e-08
1.593888452e-08
2.200218631e-08
3.063859745e-08
4.333748831e-08
6.169867736e-08
8.851223032e-08
1.273376243e-07
1.833488954e-07
2.615814147e-07
3.699297669e-07
5.172213129e-07
7.133188772e-07
9.670832929e-07
1.285793332e-06
1.672537391e-06
2.123726067e-06
2.626358864e-06
3.157575505e-06
3.686879613e-06
4.175152713e-06
4.589108657e-06
4.896240597e-06
5.079107039e-06
5.131863486e-06
5.060914898e-06
4.882613455e-06
4.61774989e-06
4.289110418e-06
3.922370577e-06
3.53882138e-06
3.155848023e-06
2.786875849e-06
2.440401215e-06
2.122181903e-06
1.835089557e-06
1.578224967e-06
1.353222413e-06
1.155810629e-06
9.829909601e-07
8.338321188e-07
7.057333579e-07
5.961785484e-07
5.028171982e-07
4.235014429e-07
3.563198745e-07
2.995131411e-07
2.515884444e-07
2.112235978e-07
1.772725343e-07
1.487479975e-07
1.248040298e-07
1.047190013e-07
8.787967532e-08
7.376659863e-08
6.194094783e-08
5.203285474e-08
4.373116344e-08
3.677452376e-08
3.094370468e-08
2.605500125e-08
2.195460819e-08
1.851383858e-08
1.56250752e-08
1.319835231e-08
1.115847691e-08
9.442609337e-09
7.998233562e-09
6.781456742e-09
5.755586456e-09
4.889941368e-09
4.158857828e-09
3.540860634e-09
3.01797116e-09
2.57513027e-09
2.199717091e-09
1.881147752e-09
1.610540811e-09
1.38043825e-09
1.18457279e-09
1.017673773e-09
8.753051766e-10
7.537303974e-10
6.497993211e-10
5.608539725e-10
4.846496423e-10
4.192889165e-10
3.631664645e-10
3.149228024e-10
2.734055471e-10
2.376369241e-10
2.067865006e-10
1.801482864e-10
1.57121488e-10
1.371943206e-10
1.199303802e-10
1.049571623e-10
9.195638079e-11
8.065579736e-11
7.082231969e-11
6.225616673e-11
5.478593119e-11
4.826439764e-11
4.256499738e-11
3.757880021e-11
3.321195951e-11
2.938354023e-11
2.602367071e-11
2.307196843e-11
2.047619799e-11
1.81911258e-11
1.617754179e-11
1.440142301e-11
1.283321775e-11
1.144723228e-11
1.022110505e-11
9.135355333e-12
8.172995445e-12
7.319197305e-12
6.561005378e-12
5.887089361e-12
5.287530876e-12
4.753639339e-12
4.277792853e-12
3.853300591e-12
3.474283668e-12
3.135571909e-12
2.83261431e-12
2.561401311e-12
2.318397257e-12
2.100481648e-12
1.904898009e-12
1.729209332e-12
1.571259219e-12
1.429137965e-12
1.301152928e-12
1.185802624e-12
1.081754046e-12
9.878228081e-13
9.02955735e-13
8.262155826e-13
7.567676258e-13
6.938678678e-13
6.368526702e-13
5.851296244e-13
5.381695089e-13
4.95499198e-13
4.56695404e-13
4.213791517e-13
3.892108938e-13
3.598861916e-13
3.331318915e-13
3.087027376e-13
2.863783696e-13
2.659606591e-13
2.472713449e-13
2.301499323e-13
2.144518251e-13
2.000466641e-13
1.868168477e-13
1.746562139e-13
1.634688648e-13
1.531681186e-13
1.436755737e-13
1.349202723e-13
1.268379533e-13
1.193703835e-13
1.124647593e-13
1.060731706e-13
1.001521203e-13
9.466209376e-14
8.956717214e-14
8.483468509e-14
8.0434899e-14
7.634073661e-14
7.252752478e-14
6.89727675e-14
6.565594141e-14
6.255831161e-14
5.96627655e-14
5.695366298e-14
5.441670113e-14
5.203879206e-14
4.980795248e-14
4.77132039e-14
4.574448232e-14
4.389255649e-14
4.214895385e-14
4.050589351e-14
3.895622539e-14
3.749337508e-14
3.611129377e-14
3.480441282e-14
3.356760244e-14
3.23961342e-14
3.128564685e-14
3.02321153e-14
2.923182236e-14
2.828133299e-14
2.737747085e-14
2.65172969e-14
2.569808993e-14
2.491732878e-14
2.417267605e-14
2.34619633e-14
2.278317748e-14
2.213444857e-14
2.151403821e-14
2.092032934e-14
2.035181671e-14
1.98070982e-14
1.928486682e-14
1.878390345e-14
1.830307008e-14
1.784130376e-14
1.739761085e-14
1.697106191e-14
1.656078692e-14
1.61659709e-14
1.578584989e-14
1.541970724e-14
1.50668702e-14
1.472670681e-14
1.439862297e-14
1.408205977e-14
1.377649109e-14
1.348142125e-14
1.319638297e-14
1.292093544e-14
1.265466249e-14
1.239717097e-14
1.214808922e-14
1.190706564e-14
1.167376739e-14
1.144787918e-14
1.122910216e-14
1.101715283e-14
1.081176213e-14
1.06126745e-14
1.041964709e-14
1.023244892e-14
1.005086024e-14
9.874671786e-15
9.703684221e-15
9.537707507e-15
9.376560391e-15
9.220069888e-15
9.068070818e-15
8.920405367e-15
8.776922675e-15
8.637478457e-15
8.50193464e-15
8.370159036e-15
8.242025019e-15
8.117411243e-15
7.99620136e-15
7.878283765e-15
7.763551354e-15
7.651901301e-15
7.543234836e-15
7.437457056e-15
7.334476729e-15
7.234206121e-15
7.136560828e-15
7.04145962e-15
6.948824295e-15
6.858579534e-15
6.770652772e-15
6.684974079e-15
6.601476033e-15
6.520093617e-15
6.440764114e-15
6.363427001e-15
6.288023862e-15
6.214498294e-15
6.142795824e-15
6.07286383e-15
6.004651465e-15
5.938109587e-15
5.873190683e-15
5.809848813e-15
5.74803954e-15
5.687719877e-15
5.628848228e-15
5.571384334e-15
5.515289222e-15
5.460525159e-15
5.407055605e-15
5.354845168e-15
5.303859557e-15
5.25406555e-15
5.20543095e-15
5.157924549e-15
5.111516095e-15
5.066176253e-15
5.02187658e-15
4.978589486e-15
4.936288211e-15
4.894946791e-15
4.854540037e-15
4.815043503e-15
4.776433462e-15
4.738686884e-15
4.701781414e-15
4.665695342e-15
4.630407592e-15
4.595897693e-15
4.562145765e-15
4.529132495e-15
4.496839124e-15
4.465247423e-15
4.434339682e-15
4.404098691e-15
4.374507723e-15
4.34555052e-15
4.317211278e-15
4.289474636e-15
4.262325657e-15
4.235749818e-15
4.209732997e-15
4.184261461e-15
4.159321852e-15
4.134901179e-15
4.110986805e-15
4.087566436e-15
4.064628112e-15
4.042160194e-15
4.02015136e-15
3.998590589e-15
3.977467159e-15
3.956770632e-15
3.936490849e-15
3.916617922e-15
3.897142225e-15
3.878054384e-15
3.859345276e-15
3.841006017e-15
3.823027954e-15
3.805402666e-15
3.788121945e-15
3.771177801e-15
3.754562452e-15
3.738268316e-15
3.722288007e-15
3.706614332e-15
3.691240282e-15
3.676159025e-15
3.661363909e-15
3.646848448e-15
3.632606323e-15
3.618631376e-15
3.604917605e-15
3.59145916e-15
3.578250339e-15
3.565285582e-15
3.552559471e-15
3.540066723e-15
3.527802187e-15
3.51576084e-15
3.503937787e-15
3.492328252e-15
3.480927578e-15
3.469731224e-15
3.458734758e-15
3.447933862e-15
3.437324321e-15
3.426902024e-15
3.416662961e-15
3.406603219e-15
3.396718981e-15
3.387006522e-15
3.377462209e-15
3.368082494e-15
3.358863918e-15
3.349803103e-15
3.340896751e-15
3.332141648e-15
3.323534651e-15
3.315072696e-15
3.306752789e-15
3.29857201e-15
3.290527507e-15
3.282616494e-15
3.274836252e-15
3.267184127e-15
3.259657526e-15
3.252253917e-15
3.244970828e-15
3.237805842e-15
3.230756602e-15
3.223820802e-15
3.216996191e-15
3.210280571e-15
3.203671794e-15
3.197167761e-15
3.190766421e-15
3.18446577e-15
3.17826385e-15
3.172158748e-15
3.166148594e-15
3.160231561e-15
3.154405861e-15
3.14866975e-15
3.143021521e-15
3.137459506e-15
3.131982072e-15
3.126587627e-15
3.121274611e-15
3.1160415e-15
3.110886804e-15
3.105809065e-15
3.100806858e-15
3.095878789e-15
3.091023495e-15
3.086239642e-15
3.081525927e-15
3.076881074e-15
3.072303835e-15
3.067792989e-15
3.063347342e-15
3.058965724e-15
3.054646994e-15
3.050390032e-15
3.046193743e-15
3.042057056e-15
3.037978922e-15
3.033958316e-15
3.029994232e-15
3.026085689e-15
3.022231723e-15
3.018431393e-15
3.014683776e-15
3.010987969e-15
3.00734309e-15
3.003748271e-15
3.000202666e-15
2.996705445e-15
2.993255796e-15
2.989852922e-15
2.986496044e-15
2.983184399e-15
2.979917239e-15
2.976693831e-15
2.973513459e-15
2.97037542e-15
2.967279024e-15
2.964223598e-15
2.96120848e-15
2.958233023e-15
2.955296593e-15
2.952398567e-15
2.949538337e-15
2.946715304e-15
2.943928885e-15
2.941178505e-15
2.938463601e-15
2.935783623e-15
2.93313803e-15
2.930526293e-15
2.927947892e-15
2.925402318e-15
2.922889072e-15
2.920407665e-15
2.917957616e-15
2.915538455e-15
2.91314972e-15
2.910790958e-15
2.908461726e-15
2.906161588e-15
2.903890115e-15
2.90164689e-15
2.899431501e-15
2.897243544e-15
2.895082623e-15
2.892948351e-15
2.890840346e-15
2.888758233e-15
2.886701645e-15
2.884670223e-15
2.882663612e-15
2.880681465e-15
2.878723441e-15
2.876789206e-15
2.87487843e-15
2.87299079e-15
2.871125971e-15
2.869283659e-15
2.86746355e-15
2.865665342e-15
2.863888741e-15
2.862133457e-15
2.860399203e-15
2.858685701e-15
2.856992674e-15
2.855319852e-15
2.853666968e-15
2.852033761e-15
2.850419972e-15
2.848825349e-15
2.847249643e-15
2.845692607e-15
2.844154001e-15
2.842633587e-15
2.841131131e-15
2.839646403e-15
2.838179175e-15
2.836729225e-15
2.835296331e-15
2.833880278e-15
2.832480849e-15
2.831097835e-15
2.829731027e-15
2.828380219e-15
2.827045209e-15
2.825725796e-15
2.824421781e-15
2.823132968e-15
2.821859162e-15
2.82060017e-15
2.8193558e-15
2.81812586e-15
2.816910159e-15
2.815708505e-15
2.814520703e-15
2.813346558e-15
2.81218587e-15
2.811038433e-15
2.809904035e-15
2.808782453e-15
2.807673455e-15
2.806576791e-15
2.805492191e-15
2.804419361e-15
2.803357971e-15
2.802307651e-15
2.801267952e-15
2.800238356e-15
2.799218208e-15
2.798206617e-15
2.797202411e-15
2.789080653e-15
2.777770579e-15
2.768576654e-15
2.761450884e-15
2.756300877e-15
2.753064545e-15
2.751702378e-15
2.752192789e-15
2.754528593e-15
2.758714354e-15
2.764764373e-15
2.772701123e-15
2.782553995e-15
2.794358299e-15
2.808154434e-15
2.823987185e-15
2.841905134e-15
2.861960125e-15
2.884206782e-15
2.908702065e-15
2.935504819e-15
2.964675331e-15
2.996274864e-15
3.030365145e-15
3.067007828e-15
3.106263879e-15
3.1481929e-15
3.192852376e-15
3.240296841e-15
3.290576941e-15
3.343738421e-15
3.399821005e-15
3.458857195e-15
3.520870975e-15
3.585876449e-15
3.653876409e-15
3.724860879e-15
3.798805617e-15
3.875670636e-15
3.955398767e-15
4.037914306e-15
4.12312176e-15
4.210904774e-15
4.301125251e-15
4.39362273e-15
4.488214051e-15
4.584693376e-15
4.682832562e-15
4.782381954e-15
4.883071597e-15
4.984612902e-15
5.086700724e-15
5.189015911e-15
5.29122821e-15
5.39299956e-15
5.493987704e-15
5.593850015e-15
5.692247526e-15
5.788849012e-15
5.883335079e-15
5.975402166e-15
6.064766303e-15
6.151166623e-15
6.234368485e-15
6.314166143e-15
6.3903849e-15
6.462882705e-15
6.53155115e-15
6.596315877e-15
6.657136354e-15
6.714005076e-15
6.766946219e-15
6.816013793e-15
6.861289356e-15
6.902879365e-15
6.940912247e-15
6.975535252e-15
7.006911207e-15
7.035215215e-15
7.0606314e-15
7.083349759e-15
7.10356319e-15
7.121464731e-15
7.137245078e-15
7.151090383e-15
7.163180383e-15
7.173686845e-15
7.182772333e-15
7.190589305e-15
7.197279496e-15
7.202973589e-15
7.207791131e-15
7.211840676e-15
7.215220107e-15
7.218017117e-15
7.220309805e-15
7.222167359e-15
7.223650799e-15
7.224813733e-15
7.225703131e-15
7.226360065e-15
7.226820418e-15
7.227115544e-15
7.227272856e-15
7.22731636e-15
7.227267109e-15
7.227143596e-15
7.226962072e-15
7.22673681e-15
7.226480317e-15
7.226203491e-15
7.225915756e-15
7.225625154e-15
7.225338428e-15
7.225061092e-15
7.224797492e-15
7.224550876e-15
7.22432346e-15
7.224116509e-15
7.223930431e-15
7.223764868e-15
7.223618812e-15
7.223490718e-15
7.223378623e-15
7.223280271e-15
7.223193227e-15
7.223114996e-15
7.223043122e-15
7.222975284e-15
7.222909373e-15
7.22284355e-15
7.222776294e-15
7.222706428e-15
7.222633125e-15
7.222555908e-15
7.222474624e-15
7.222389415e-15
7.222300679e-15
7.222209015e-15
7.222115179e-15
7.222020028e-15
7.221924469e-15
7.221829414e-15
7.221735737e-15
7.221644235e-15
7.22155561e-15
7.221470439e-15
7.221389171e-15
7.221312118e-15
7.221239462e-15
7.22117126e-15
7.221107459e-15
7.221047914e-15
7.220992402e-15
7.220940648e-15
7.220892336e-15
7.220847136e-15
7.22080471e-15
7.220764734e-15
7.220726904e-15
7.220690943e-15
7.22065661e-15
7.220623701e-15
7.220592048e-15
7.22056152e-15
7.220532018e-15
7.220503476e-15
7.220475854e-15
7.220449133e-15
7.220423316e-15
7.220398422e-15
7.220374481e-15
7.220351536e-15
7.22032964e-15
7.220308851e-15
7.220289234e-15
7.22027086e-15
7.220253803e-15
7.220238138e-15
7.220223942e-15
7.220211289e-15
7.220200252e-15
7.220190895e-15
7.220183275e-15
7.220177439e-15
7.220173419e-15
7.220171231e-15
7.220170872e-15
7.220172322e-15
7.220175537e-15
7.220180453e-15
7.220186984e-15
7.220195021e-15
7.220204436e-15
7.220215082e-15
7.220226796e-15
7.220239398e-15
7.2202527e-15
7.220266503e-15
7.220280604e-15
7.220294797e-15
7.220308878e-15
7.220322647e-15
7.220335912e-15
7.220348491e-15
7.220360214e-15
7.220370926e-15
7.220380489e-15
7.220388783e-15
7.220395709e-15
7.220401185e-15
7.220405152e-15
7.22040757e-15
7.22040842e-15
7.220407703e-15
7.220405436e-15
7.220401656e-15
7.220396415e-15
7.220389778e-15
7.220381825e-15
7.220372644e-15
7.220362334e-15
7.220351e-15
7.220338753e-15
7.220325709e-15
7.220311983e-15
7.220297694e-15
7.220282958e-15
7.22026789e-15
7.220252603e-15
7.220237206e-15
7.220221801e-15
7.220206489e-15
7.220191361e-15
7.220176504e-15
7.220161998e-15
7.220147916e-15
7.220134323e-15
7.220121276e-15
7.220108826e-15
7.220097016e-15
7.220085879e-15
7.220075444e-15
7.220065731e-15
7.220056756e-15
7.220048532e-15
7.220041089e-15
7.22003451e-15
7.220029053e-15
7.220025446e-15
)
;

boundaryField
{
    inlet
    {
        type            fixedValue;
        value           uniform 0;
    }
    outlet
    {
        type            zeroGradient;
    }
    wall
    {
        type            empty;
    }
}


// ************************************************************************* //
