/*--------------------------------*- C++ -*----------------------------------*\
  =========                 |
  \\      /  F ield         | OpenFOAM: The Open Source CFD Toolbox
   \\    /   O peration     | Website:  https://openfoam.org
    \\  /    A nd           | Version:  7
     \\/     M anipulation  |
\*---------------------------------------------------------------------------*/
FoamFile
{
    version     2.0;
    format      ascii;
    class       volScalarField;
    location    "0.000558243009";
    object      CH2OH;
}
// * * * * * * * * * * * * * * * * * * * * * * * * * * * * * * * * * * * * * //

dimensions      [0 0 0 0 0 0 0];

internalField   nonuniform List<scalar> 
1500
(
8.874985263e-37
3.201929474e-36
5.914229727e-36
7.964026554e-36
9.160570382e-36
9.763916237e-36
1.004031343e-35
1.015645444e-35
1.020081095e-35
1.021577265e-35
1.021968242e-35
1.021970303e-35
1.021843309e-35
1.021680952e-35
1.021520364e-35
1.021377563e-35
1.021258447e-35
1.021163183e-35
1.021089003e-35
1.021032269e-35
1.02098976e-35
1.020959178e-35
1.020939073e-35
1.020928462e-35
1.020926406e-35
1.020931712e-35
1.020942831e-35
1.020957935e-35
1.020975094e-35
1.020992485e-35
1.021008565e-35
1.021022169e-35
1.021032539e-35
1.021039284e-35
1.021042316e-35
1.02104177e-35
1.021037931e-35
1.021031183e-35
1.021021964e-35
1.021010748e-35
1.020998019e-35
1.02098426e-35
1.020969928e-35
1.020955439e-35
1.020941139e-35
1.020927297e-35
1.020914089e-35
1.020901605e-35
1.020889857e-35
1.020878793e-35
1.020868324e-35
1.020858341e-35
1.020848742e-35
1.020839442e-35
1.02083039e-35
1.020821576e-35
1.020813031e-35
1.020804825e-35
1.020797065e-35
1.020789884e-35
1.020783437e-35
1.020777886e-35
1.020773402e-35
1.020770145e-35
1.020768267e-35
1.020767895e-35
1.020769132e-35
1.020772046e-35
1.020776667e-35
1.020782983e-35
1.020790936e-35
1.020800423e-35
1.020811298e-35
1.020823375e-35
1.020836429e-35
1.020850208e-35
1.020864438e-35
1.020878832e-35
1.020893096e-35
1.020906942e-35
1.020920092e-35
1.020932289e-35
1.0209433e-35
1.020952925e-35
1.020960998e-35
1.02096739e-35
1.020972015e-35
1.020974823e-35
1.020975807e-35
1.020974994e-35
1.020972451e-35
1.020968274e-35
1.020962591e-35
1.020955556e-35
1.020947345e-35
1.020938147e-35
1.020928168e-35
1.020917614e-35
1.020906696e-35
1.020895617e-35
1.020884569e-35
1.020873728e-35
1.020863248e-35
1.020853258e-35
1.020843858e-35
1.020835117e-35
1.020827071e-35
1.020819728e-35
1.020813063e-35
1.020807026e-35
1.020801546e-35
1.020796535e-35
1.020791895e-35
1.020787522e-35
1.020783316e-35
1.020779184e-35
1.020775045e-35
1.020770835e-35
1.020766509e-35
1.020762042e-35
1.020757431e-35
1.02075269e-35
1.020747853e-35
1.020742965e-35
1.020738085e-35
1.020733274e-35
1.0207286e-35
1.020724129e-35
1.020719922e-35
1.020716037e-35
1.020712524e-35
1.020709427e-35
1.020706782e-35
1.020704621e-35
1.020702969e-35
1.020701851e-35
1.020701289e-35
1.020701305e-35
1.020701923e-35
1.020703169e-35
1.020705069e-35
1.02070765e-35
1.02071094e-35
1.020714964e-35
1.020719742e-35
1.020725288e-35
1.020731607e-35
1.020738692e-35
1.020746525e-35
1.020755072e-35
1.020764286e-35
1.020774104e-35
1.020784449e-35
1.020795233e-35
1.020806356e-35
1.020817712e-35
1.020829188e-35
1.02084067e-35
1.020852044e-35
1.0208632e-35
1.020874035e-35
1.02088445e-35
1.02089436e-35
1.020903686e-35
1.020912358e-35
1.020920318e-35
1.020927514e-35
1.020933902e-35
1.020939441e-35
1.020944098e-35
1.02094784e-35
1.020950642e-35
1.020952476e-35
1.020953321e-35
1.02095316e-35
1.020951982e-35
1.020949784e-35
1.020946572e-35
1.020942368e-35
1.020937208e-35
1.020931148e-35
1.020924264e-35
1.02091666e-35
1.020908464e-35
1.020899833e-35
1.02089095e-35
1.020882026e-35
1.020873293e-35
1.020865e-35
1.020857406e-35
1.020850764e-35
1.020845318e-35
1.020841285e-35
1.020838846e-35
1.020838136e-35
1.02083924e-35
1.020842184e-35
1.020846948e-35
1.020853464e-35
1.020861636e-35
1.02087135e-35
1.020882487e-35
1.020894941e-35
1.02090862e-35
1.020923447e-35
1.020939349e-35
1.020956239e-35
1.020973983e-35
1.020992375e-35
1.021011101e-35
1.021029721e-35
1.021047661e-35
1.02106423e-35
1.021078665e-35
1.021090204e-35
1.021098188e-35
1.021102178e-35
1.02110209e-35
1.021098312e-35
1.021091796e-35
1.021084103e-35
1.021077381e-35
1.021074255e-35
1.021077638e-35
1.021090448e-35
1.021115262e-35
1.021153926e-35
1.02120716e-35
1.021274221e-35
1.02135265e-35
1.021438187e-35
1.021524878e-35
1.021605416e-35
1.021671727e-35
1.021715775e-35
1.021730564e-35
1.021711239e-35
1.0216562e-35
1.021568118e-35
1.021454737e-35
1.021329402e-35
1.021211321e-35
1.021125744e-35
1.02110439e-35
1.021186606e-35
1.021421254e-35
1.021867671e-35
1.02258856e-35
1.023616399e-35
1.024848709e-35
1.025343042e-35
1.025470236e-35
1.02559915e-35
1.025731428e-35
1.025867479e-35
1.026007475e-35
1.026151555e-35
1.026299866e-35
1.026452566e-35
1.026609825e-35
1.026771826e-35
1.026938759e-35
1.027110825e-35
1.027288234e-35
1.027471207e-35
1.027659975e-35
1.027854782e-35
1.028055885e-35
1.028263553e-35
1.02847807e-35
1.028699734e-35
1.028928859e-35
1.029165777e-35
1.029410835e-35
1.029664398e-35
1.029926852e-35
1.030198601e-35
1.030480073e-35
1.030771714e-35
1.031073997e-35
1.031387417e-35
1.031712496e-35
1.032049781e-35
1.032399851e-35
1.03276331e-35
1.033140796e-35
1.03353298e-35
1.033940565e-35
1.034364291e-35
1.034804937e-35
1.035263319e-35
1.035740296e-35
1.03623677e-35
1.036753687e-35
1.037292042e-35
1.03785288e-35
1.038437296e-35
1.039046442e-35
1.039681524e-35
1.04034381e-35
1.04103463e-35
1.041755379e-35
1.042507518e-35
1.043292583e-35
1.04411218e-35
1.044967998e-35
1.045861802e-35
1.046795445e-35
1.047770867e-35
1.048790101e-35
1.049855277e-35
1.050968625e-35
1.05213248e-35
1.053349286e-35
1.054621603e-35
1.055952109e-35
1.057343607e-35
1.058799028e-35
1.060321441e-35
1.061914053e-35
1.06358022e-35
1.065323449e-35
1.067147409e-35
1.069055933e-35
1.071053029e-35
1.073142883e-35
1.075329872e-35
1.077618566e-35
1.080013742e-35
1.082520387e-35
1.085143709e-35
1.08788915e-35
1.09076239e-35
1.093769359e-35
1.096916249e-35
1.100209522e-35
1.103655926e-35
1.107262501e-35
1.111036596e-35
1.11498588e-35
1.119118356e-35
1.123442375e-35
1.127966651e-35
1.132700276e-35
1.137652735e-35
1.142833928e-35
1.148254179e-35
1.153924263e-35
1.159855422e-35
1.166059381e-35
1.172548378e-35
1.179335178e-35
1.186433101e-35
1.193856045e-35
1.201618511e-35
1.20973563e-35
1.218223193e-35
1.227097674e-35
1.236376271e-35
1.246076927e-35
1.256218372e-35
1.266820154e-35
1.277902676e-35
1.289487239e-35
1.301596076e-35
1.314252398e-35
1.327480439e-35
1.3413055e-35
1.355753997e-35
1.370853516e-35
1.386632862e-35
1.403122112e-35
1.420352681e-35
1.438357372e-35
1.457170446e-35
1.476827686e-35
1.497366462e-35
1.518825805e-35
1.541246481e-35
1.564671067e-35
1.589144029e-35
1.61471181e-35
1.641422913e-35
1.669327989e-35
1.698479934e-35
1.728933984e-35
1.760747813e-35
1.793981637e-35
1.828698322e-35
1.864963497e-35
1.90284566e-35
1.942416305e-35
1.983750038e-35
2.026924704e-35
2.072021518e-35
2.119125193e-35
2.168324084e-35
2.219710321e-35
2.273379958e-35
2.329433122e-35
2.38797416e-35
2.449111802e-35
2.512959315e-35
2.579634667e-35
2.649260699e-35
2.72196529e-35
2.797881537e-35
2.877147929e-35
2.959908533e-35
3.046313177e-35
3.136517642e-35
3.230683854e-35
3.328980081e-35
3.431581133e-35
3.53866857e-35
3.650430906e-35
3.76706382e-35
3.888770379e-35
4.015761251e-35
4.148254929e-35
4.286477964e-35
4.430665193e-35
4.581059978e-35
4.737914446e-35
4.901489737e-35
5.072056256e-35
5.249893931e-35
5.435292473e-35
5.628551653e-35
5.829981574e-35
6.039902955e-35
6.25864743e-35
6.486557843e-35
6.723988562e-35
6.971305803e-35
7.22888796e-35
7.497125952e-35
7.776423583e-35
8.067197915e-35
8.369879658e-35
8.68491358e-35
9.012758929e-35
9.353889887e-35
9.708796032e-35
1.007798284e-34
1.04619722e-34
1.086130298e-34
1.127653157e-34
1.170823255e-34
1.21569993e-34
1.26234447e-34
1.310820189e-34
1.361192501e-34
1.413529007e-34
1.467899579e-34
1.524376459e-34
1.583034355e-34
1.64395055e-34
1.707205015e-34
1.772880532e-34
1.841062823e-34
1.911840687e-34
1.985306152e-34
2.061554627e-34
2.140685077e-34
2.222800198e-34
2.308006611e-34
2.396415067e-34
2.488140667e-34
2.583303093e-34
2.682026863e-34
2.78444159e-34
2.890682272e-34
3.000889593e-34
3.115210246e-34
3.233797279e-34
3.356810463e-34
3.484416683e-34
3.61679036e-34
3.754113892e-34
3.896578134e-34
4.044382905e-34
4.197737525e-34
4.356861393e-34
4.521984602e-34
4.693348593e-34
4.871206851e-34
5.05582565e-34
5.247484844e-34
5.446478711e-34
5.653116856e-34
5.867725166e-34
6.090646838e-34
6.322243463e-34
6.562896198e-34
6.813006998e-34
7.072999944e-34
7.343322656e-34
7.624447796e-34
7.916874684e-34
8.221131007e-34
8.537774664e-34
8.867395719e-34
9.210618505e-34
9.568103858e-34
9.940551522e-34
1.032870271e-33
1.073334285e-33
1.115530452e-33
1.159547047e-33
1.205477659e-33
1.253421399e-33
1.303482913e-33
1.355772855e-33
1.41041113e-33
1.467523893e-33
1.527244653e-33
1.589719674e-33
1.655102356e-33
1.723555225e-33
1.795251216e-33
1.870374531e-33
1.949121492e-33
2.031701443e-33
2.118337696e-33
2.209268529e-33
2.304748055e-33
2.405045926e-33
2.510446012e-33
2.621262929e-33
2.737829773e-33
2.860500733e-33
2.989653353e-33
3.125695428e-33
3.269067297e-33
3.42024105e-33
3.579723164e-33
3.748058072e-33
3.925831836e-33
4.113676033e-33
4.312271996e-33
4.522355522e-33
4.744722105e-33
4.980232785e-33
5.229820694e-33
5.49449839e-33
5.77536611e-33
6.073621048e-33
6.390567824e-33
6.727630327e-33
7.086365114e-33
7.468476625e-33
7.875834473e-33
8.310493153e-33
8.774714524e-33
9.270993532e-33
9.802087673e-33
1.037105082e-32
1.098127214e-32
1.163652088e-32
1.234099818e-32
1.309939689e-32
1.391697093e-32
1.479961586e-32
1.575396254e-32
1.678748632e-32
1.790863461e-32
1.912697613e-32
2.045337597e-32
2.190020136e-32
2.34815641e-32
2.521360681e-32
2.711484177e-32
2.920655307e-32
3.151327514e-32
3.40633637e-32
3.688967907e-32
4.003040629e-32
4.353004261e-32
4.744059039e-32
5.182300293e-32
5.674894302e-32
6.230292944e-32
6.858496681e-32
7.571377941e-32
8.383080318e-32
9.310513245e-32
1.037396739e-31
1.159788321e-31
1.301181462e-31
1.465164194e-31
1.656110479e-31
1.879374669e-31
2.14153918e-31
2.450731137e-31
2.817028816e-31
3.252985349e-31
3.77430621e-31
4.400729138e-31
5.157171701e-31
6.07523421e-31
7.195176737e-31
8.568531806e-31
1.026157403e-30
1.235995175e-30
1.497490418e-30
1.825165642e-30
2.238082752e-30
2.761403856e-30
3.428542158e-30
4.284148761e-30
5.388293522e-30
6.822366163e-30
8.697476702e-30
1.116651755e-29
1.444163367e-29
1.881974214e-29
2.472012059e-29
3.274021532e-29
4.373912823e-29
5.896339748e-29
8.023774217e-29
1.10256067e-28
1.530278571e-28
2.145663201e-28
3.039539053e-28
4.349986983e-28
6.288184946e-28
9.178848877e-28
1.352370295e-27
2.010134901e-27
3.012477609e-27
4.549031034e-27
6.91718762e-27
1.058465679e-26
1.628890467e-26
2.51955039e-26
3.915074216e-26
6.108532612e-26
9.566075995e-26
1.503062908e-25
2.368858404e-25
3.743835454e-25
5.932405398e-25
9.42376131e-25
1.500586661e-24
2.395108583e-24
3.83194932e-24
6.145617779e-24
9.880962681e-24
1.592839243e-23
2.574826766e-23
4.174498035e-23
6.789358149e-23
1.107947862e-22
1.814606741e-22
2.983540607e-22
4.925919671e-22
8.169084536e-22
1.361190715e-21
2.279585217e-21
3.83810644e-21
6.498822627e-21
1.106973388e-20
1.897340247e-20
3.273161149e-20
5.684531295e-20
9.94017787e-20
1.750258413e-19
3.103251603e-19
5.539776135e-19
9.95478482e-19
1.800066026e-18
3.27389339e-18
5.985750502e-18
1.099445386e-17
2.027346192e-17
3.750302505e-17
6.954598898e-17
1.291929602e-16
2.402609261e-16
4.47052016e-16
8.318914486e-16
1.547652232e-15
2.878128544e-15
5.350255117e-15
9.942987422e-15
1.847664653e-14
3.43410665e-14
6.387403105e-14
1.190642626e-13
2.232710286e-13
4.248854059e-13
8.329580315e-13
1.652838878e-12
3.296362322e-12
6.575022802e-12
1.305761578e-11
2.572371974e-11
5.005086773e-11
9.60294459e-11
1.809649443e-10
3.339016232e-10
5.973016124e-10
1.024304691e-09
1.691196707e-09
2.681431189e-09
4.076150737e-09
5.962608124e-09
8.463264066e-09
1.178325288e-08
1.627248826e-08
2.251071035e-08
3.141536488e-08
4.453874878e-08
6.347756454e-08
9.10837182e-08
1.309313006e-07
1.883126151e-07
2.680690363e-07
3.78131034e-07
5.271410214e-07
7.259274088e-07
9.808826291e-07
1.300252686e-06
1.686838938e-06
2.136783063e-06
2.636451786e-06
3.16292505e-06
3.688039415e-06
4.169971027e-06
4.576677859e-06
4.876338983e-06
5.051760374e-06
5.097638278e-06
5.021182088e-06
4.838885072e-06
4.57075684e-06
4.240725278e-06
3.874554905e-06
3.493394419e-06
3.11463254e-06
2.750631501e-06
2.408944263e-06
2.09490913e-06
1.811411639e-06
1.55746381e-06
1.33626684e-06
1.142143608e-06
9.713158596e-07
8.239193515e-07
6.973971842e-07
5.892349098e-07
4.970784583e-07
4.187833697e-07
3.524925286e-07
2.963861004e-07
2.49032597e-07
2.0913113e-07
1.755549465e-07
1.473334945e-07
1.236348118e-07
1.03748745e-07
8.707133151e-08
7.309053776e-08
6.137343908e-08
5.155484019e-08
4.332728068e-08
3.643233343e-08
3.06530833e-08
2.5807666e-08
2.17437443e-08
1.833380855e-08
1.547119075e-08
1.306669498e-08
1.104575652e-08
9.346051729e-09
7.915491026e-09
6.71053613e-09
5.694791045e-09
4.837823521e-09
4.114180172e-09
3.502563995e-09
2.9851479e-09
2.547001981e-09
2.175615827e-09
1.86050016e-09
1.592854654e-09
1.365290924e-09
1.171601505e-09
1.006567144e-09
8.657960027e-10
7.455894587e-10
6.428300404e-10
5.548878223e-10
4.795421892e-10
4.149164162e-10
3.594229308e-10
3.117174845e-10
2.7066076e-10
2.352861826e-10
2.047729162e-10
1.784231905e-10
1.556432499e-10
1.359273333e-10
1.188441911e-10
1.040257281e-10
9.115742944e-11
7.997028129e-11
7.023394837e-11
6.175100654e-11
5.435206319e-11
4.789162504e-11
4.224459542e-11
3.73033024e-11
3.297497498e-11
2.917959769e-11
2.584808506e-11
2.292072687e-11
2.034586268e-11
1.807875071e-11
1.608060167e-11
1.431775264e-11
1.276096008e-11
1.138479408e-11
1.016711901e-11
9.088647639e-12
8.132558067e-12
7.28416429e-12
6.530632566e-12
5.86073703e-12
5.264648883e-12
4.733754403e-12
4.260497659e-12
3.838244461e-12
3.461164565e-12
3.124129579e-12
2.822624411e-12
2.552670371e-12
2.310758348e-12
2.093790681e-12
1.899030546e-12
1.72405785e-12
1.566730764e-12
1.42515213e-12
1.297640125e-12
1.182702584e-12
1.079014545e-12
9.853985581e-13
9.008074374e-13
8.243091107e-13
7.550733209e-13
6.923599335e-13
6.355086505e-13
5.839299534e-13
5.370971232e-13
4.945392017e-13
4.558347806e-13
4.206065144e-13
3.885162707e-13
3.592608399e-13
3.325681366e-13
3.081938346e-13
2.859183831e-13
2.655443592e-13
2.468941173e-13
2.298076999e-13
2.141409811e-13
1.997640127e-13
1.865595536e-13
1.744217577e-13
1.632550048e-13
1.529728572e-13
1.434971282e-13
1.347570496e-13
1.266885275e-13
1.192334767e-13
1.123392246e-13
1.059579771e-13
1.000463404e-13
9.456489145e-14
8.94777931e-14
8.47524478e-14
8.035918699e-14
7.627099159e-14
7.246324058e-14
6.891348466e-14
6.560124249e-14
6.250781691e-14
5.961612934e-14
5.691057033e-14
5.437686466e-14
5.200194947e-14
4.977386413e-14
4.768165069e-14
4.571526377e-14
4.386548903e-14
4.212386929e-14
4.048263763e-14
3.893465672e-14
3.747336376e-14
3.609272054e-14
3.478716807e-14
3.355158542e-14
3.238125221e-14
3.127181459e-14
3.021925425e-14
2.921986018e-14
2.827020303e-14
2.736711165e-14
2.650765179e-14
2.568910665e-14
2.490895907e-14
2.416487536e-14
2.345469048e-14
2.277639453e-14
2.212812034e-14
2.15081322e-14
2.091481551e-14
2.034666726e-14
1.980228739e-14
1.928037082e-14
1.877970018e-14
1.829913911e-14
1.783762612e-14
1.739416896e-14
1.696783946e-14
1.655776878e-14
1.616314303e-14
1.578319923e-14
1.541722168e-14
1.506453847e-14
1.472451843e-14
1.439656819e-14
1.408012953e-14
1.377467693e-14
1.34797153e-14
1.319477791e-14
1.291942443e-14
1.265323915e-14
1.239582935e-14
1.214682375e-14
1.190587114e-14
1.1672639e-14
1.144681236e-14
1.122809266e-14
1.101619667e-14
1.081085558e-14
1.061181407e-14
1.041882949e-14
1.023167108e-14
1.005011927e-14
9.873964976e-15
9.703009014e-15
9.537061501e-15
9.375941323e-15
9.219475628e-15
9.06749936e-15
8.919854817e-15
8.776391245e-15
8.636964455e-15
8.501436468e-15
8.369675184e-15
8.241554059e-15
8.116951823e-15
7.995752198e-15
7.877843645e-15
7.763119124e-15
7.651475863e-15
7.542815151e-15
7.437042134e-15
7.334065631e-15
7.233797953e-15
7.136154739e-15
7.041054798e-15
6.948419965e-15
6.858174958e-15
6.770247246e-15
6.68456693e-15
6.601066619e-15
6.519681325e-15
6.440348355e-15
6.363007213e-15
6.287599507e-15
6.214068856e-15
6.14236081e-15
6.072422767e-15
6.004203902e-15
5.937655088e-15
5.872728832e-15
5.809379209e-15
5.747561798e-15
5.687233628e-15
5.628353117e-15
5.57088002e-15
5.514775379e-15
5.460001473e-15
5.406521773e-15
5.354300899e-15
5.303304573e-15
5.253499582e-15
5.204853738e-15
5.157335846e-15
5.11091566e-15
5.065563855e-15
5.021251996e-15
4.977952505e-15
4.935638626e-15
4.894284406e-15
4.853864662e-15
4.814354954e-15
4.775731565e-15
4.737971469e-15
4.701052317e-15
4.664952409e-15
4.629650672e-15
4.595126642e-15
4.561360445e-15
4.528332774e-15
4.496024873e-15
4.464418521e-15
4.433496013e-15
4.403240142e-15
4.373634186e-15
4.344661893e-15
4.316307464e-15
4.288555542e-15
4.261391193e-15
4.234799899e-15
4.208767543e-15
4.183280395e-15
4.158325102e-15
4.133888676e-15
4.109958483e-15
4.086522233e-15
4.063567969e-15
4.041084059e-15
4.019059181e-15
3.997482319e-15
3.976342752e-15
3.955630048e-15
3.935334051e-15
3.915444875e-15
3.895952896e-15
3.876848747e-15
3.858123304e-15
3.839767688e-15
3.821773249e-15
3.804131567e-15
3.786834438e-15
3.769873876e-15
3.7532421e-15
3.73693153e-15
3.720934785e-15
3.705244673e-15
3.689854186e-15
3.674756498e-15
3.659944957e-15
3.64541308e-15
3.631154551e-15
3.617163213e-15
3.603433069e-15
3.58995827e-15
3.576733116e-15
3.563752051e-15
3.551009658e-15
3.538500655e-15
3.526219895e-15
3.514162358e-15
3.502323149e-15
3.490697494e-15
3.47928074e-15
3.468068346e-15
3.457055885e-15
3.446239039e-15
3.435613594e-15
3.425175444e-15
3.414920579e-15
3.404845088e-15
3.394945158e-15
3.385217064e-15
3.375657175e-15
3.366261947e-15
3.35702792e-15
3.347951719e-15
3.33903005e-15
3.330259698e-15
3.321637523e-15
3.313160462e-15
3.304825525e-15
3.296629793e-15
3.288570414e-15
3.280644606e-15
3.272849652e-15
3.265182899e-15
3.257641754e-15
3.250223689e-15
3.242926232e-15
3.235746969e-15
3.228683544e-15
3.221733654e-15
3.214895049e-15
3.208165532e-15
3.201542957e-15
3.195025227e-15
3.188610292e-15
3.18229615e-15
3.176080846e-15
3.169962465e-15
3.163939142e-15
3.158009049e-15
3.152170402e-15
3.146421456e-15
3.140760507e-15
3.135185887e-15
3.129695967e-15
3.124289154e-15
3.118963891e-15
3.113718655e-15
3.108551956e-15
3.103462339e-15
3.09844838e-15
3.093508686e-15
3.088641895e-15
3.083846676e-15
3.079121725e-15
3.074465769e-15
3.069877559e-15
3.065355877e-15
3.06089953e-15
3.05650735e-15
3.052178195e-15
3.047910946e-15
3.043704511e-15
3.039557819e-15
3.035469823e-15
3.031439497e-15
3.027465838e-15
3.023547864e-15
3.019684613e-15
3.015875145e-15
3.012118538e-15
3.00841389e-15
3.004760319e-15
3.001156958e-15
2.997602962e-15
2.994097502e-15
2.990639765e-15
2.987228957e-15
2.983864299e-15
2.980545027e-15
2.977270395e-15
2.974039671e-15
2.970852138e-15
2.967707094e-15
2.96460385e-15
2.961541732e-15
2.95852008e-15
2.955538247e-15
2.952595598e-15
2.949691512e-15
2.946825379e-15
2.943996603e-15
2.941204598e-15
2.93844879e-15
2.935728619e-15
2.933043532e-15
2.930392989e-15
2.92777646e-15
2.925193427e-15
2.922643379e-15
2.920125817e-15
2.917640251e-15
2.915186202e-15
2.912763198e-15
2.910370777e-15
2.908008487e-15
2.905675882e-15
2.903372526e-15
2.901097992e-15
2.89885186e-15
2.896633717e-15
2.894443161e-15
2.892279794e-15
2.890143227e-15
2.888033078e-15
2.885948972e-15
2.883890542e-15
2.881857424e-15
2.879849266e-15
2.877865719e-15
2.87590644e-15
2.873971095e-15
2.872059352e-15
2.870170888e-15
2.868305385e-15
2.86646253e-15
2.864642016e-15
2.86284354e-15
2.861066807e-15
2.859311525e-15
2.857577407e-15
2.855864172e-15
2.854171542e-15
2.852499245e-15
2.850847013e-15
2.849214583e-15
2.847601695e-15
2.846008094e-15
2.844433529e-15
2.842877753e-15
2.841340524e-15
2.8398216e-15
2.838320748e-15
2.836837733e-15
2.835372328e-15
2.833924306e-15
2.832493445e-15
2.831079527e-15
2.829682334e-15
2.828301653e-15
2.826937273e-15
2.825588987e-15
2.824256587e-15
2.82293987e-15
2.821638635e-15
2.820352683e-15
2.819081816e-15
2.817825838e-15
2.816584554e-15
2.815357771e-15
2.814145297e-15
2.812946939e-15
2.811762506e-15
2.810591808e-15
2.809434653e-15
2.808290852e-15
2.807160212e-15
2.806042545e-15
2.804937656e-15
2.803845353e-15
2.802765435e-15
2.801697698e-15
2.800641923e-15
2.79959786e-15
2.798565235e-15
2.797543695e-15
2.796532795e-15
2.79553193e-15
2.794540308e-15
2.786538935e-15
2.775683383e-15
2.766910358e-15
2.760176234e-15
2.755389537e-15
2.752487132e-15
2.751429088e-15
2.752193537e-15
2.754773209e-15
2.75917278e-15
2.765406846e-15
2.773498348e-15
2.783477314e-15
2.795379841e-15
2.809247249e-15
2.825125372e-15
2.843063944e-15
2.86311606e-15
2.885337674e-15
2.909787145e-15
2.936524773e-15
2.965612344e-15
2.997112658e-15
3.031089005e-15
3.067604619e-15
3.106722057e-15
3.148502522e-15
3.193005091e-15
3.240285888e-15
3.290397138e-15
3.343386147e-15
3.399294181e-15
3.458155257e-15
3.519994843e-15
3.584828493e-15
3.652660407e-15
3.723481966e-15
3.797270232e-15
3.873986454e-15
3.95357463e-15
4.035960135e-15
4.121048465e-15
4.208724148e-15
4.298849855e-15
4.391265763e-15
4.485789219e-15
4.582214737e-15
4.68031438e-15
4.779838535e-15
4.880517123e-15
4.98206127e-15
5.084165383e-15
5.186509704e-15
5.288763227e-15
5.390587008e-15
5.491637786e-15
5.591571832e-15
5.690049e-15
5.786736835e-15
5.88131468e-15
5.973477709e-15
6.062940712e-15
6.149441619e-15
6.232744655e-15
6.312643026e-15
6.38896108e-15
6.461555929e-15
6.530318444e-15
6.59517367e-15
6.656080603e-15
6.713031387e-15
6.766049964e-15
6.815190217e-15
6.860533672e-15
6.902186843e-15
6.940278281e-15
6.974955422e-15
7.006381321e-15
7.034731343e-15
7.060189894e-15
7.08294726e-15
7.10319663e-15
7.121131324e-15
7.136942302e-15
7.150815964e-15
7.162932269e-15
7.17346318e-15
7.182571433e-15
7.190409628e-15
7.197119617e-15
7.202832179e-15
7.207666935e-15
7.211732495e-15
7.215126784e-15
7.217937523e-15
7.220242834e-15
7.222111925e-15
7.22360583e-15
7.224778174e-15
7.225675945e-15
7.226340243e-15
7.22680698e-15
7.227107548e-15
7.227269406e-15
7.227316612e-15
7.227270279e-15
7.227148964e-15
7.22696899e-15
7.226744703e-15
7.226488685e-15
7.226211913e-15
7.225923885e-15
7.225632716e-15
7.22534522e-15
7.225066975e-15
7.224802386e-15
7.224554752e-15
7.224326334e-15
7.224118435e-15
7.22393149e-15
7.223765166e-15
7.22361847e-15
7.223489863e-15
7.223377386e-15
7.223278779e-15
7.223191602e-15
7.223113347e-15
7.223041548e-15
7.222973868e-15
7.222908182e-15
7.222842636e-15
7.222775694e-15
7.222706162e-15
7.222633204e-15
7.222556329e-15
7.222475375e-15
7.222390477e-15
7.222302025e-15
7.222210616e-15
7.222117003e-15
7.222022042e-15
7.221926642e-15
7.221831714e-15
7.221738134e-15
7.221646704e-15
7.221558128e-15
7.221472986e-15
7.221391731e-15
7.221314678e-15
7.221242012e-15
7.221173792e-15
7.221109967e-15
7.221050393e-15
7.22099485e-15
7.220943062e-15
7.220894716e-15
7.220849478e-15
7.220807014e-15
7.220766997e-15
7.220729123e-15
7.220693114e-15
7.220658729e-15
7.220625762e-15
7.220594045e-15
7.220563446e-15
7.220533866e-15
7.220505238e-15
7.220477521e-15
7.220450697e-15
7.22042477e-15
7.220399757e-15
7.220375691e-15
7.220352614e-15
7.22033058e-15
7.22030965e-15
7.220289888e-15
7.220271367e-15
7.220254163e-15
7.220238351e-15
7.220224011e-15
7.220211219e-15
7.220200047e-15
7.220190562e-15
7.220182822e-15
7.220176876e-15
7.220172755e-15
7.220170477e-15
7.220170042e-15
7.220171427e-15
7.220174592e-15
7.220179471e-15
7.22018598e-15
7.220194009e-15
7.220203431e-15
7.220214099e-15
7.220225847e-15
7.220238499e-15
7.220251863e-15
7.22026574e-15
7.220279926e-15
7.220294215e-15
7.220308401e-15
7.220322282e-15
7.220335666e-15
7.220348367e-15
7.220360215e-15
7.220371052e-15
7.22038074e-15
7.220389156e-15
7.220396199e-15
7.220401786e-15
7.220405855e-15
7.220408366e-15
7.220409297e-15
7.220408649e-15
7.220406438e-15
7.2204027e-15
7.220397485e-15
7.220390861e-15
7.220382904e-15
7.220373705e-15
7.220363362e-15
7.220351981e-15
7.220339675e-15
7.220326558e-15
7.220312749e-15
7.220298367e-15
7.220283529e-15
7.220268352e-15
7.22025295e-15
7.220237433e-15
7.220221905e-15
7.220206468e-15
7.220191215e-15
7.220176234e-15
7.220161606e-15
7.220147405e-15
7.220133697e-15
7.22012054e-15
7.220107986e-15
7.220096078e-15
7.220084851e-15
7.220074334e-15
7.220064548e-15
7.220055508e-15
7.22004723e-15
7.220039744e-15
7.220033135e-15
7.220027661e-15
7.220024057e-15
)
;

boundaryField
{
    inlet
    {
        type            fixedValue;
        value           uniform 0;
    }
    outlet
    {
        type            zeroGradient;
    }
    wall
    {
        type            empty;
    }
}


// ************************************************************************* //
