/*--------------------------------*- C++ -*----------------------------------*\
  =========                 |
  \\      /  F ield         | OpenFOAM: The Open Source CFD Toolbox
   \\    /   O peration     | Website:  https://openfoam.org
    \\  /    A nd           | Version:  7
     \\/     M anipulation  |
\*---------------------------------------------------------------------------*/
FoamFile
{
    version     2.0;
    format      ascii;
    class       volScalarField;
    location    "0.000558243009";
    object      CH2O;
}
// * * * * * * * * * * * * * * * * * * * * * * * * * * * * * * * * * * * * * //

dimensions      [0 0 0 0 0 0 0];

internalField   nonuniform List<scalar> 
1500
(
5.616750297e-13
2.195059528e-12
4.527020451e-12
6.793545372e-12
8.483248921e-12
9.515188185e-12
1.005152618e-11
1.029444712e-11
1.039194503e-11
1.042708141e-11
1.043857702e-11
1.044202352e-11
1.044297797e-11
1.044322378e-11
1.0443283e-11
1.044329642e-11
1.044329929e-11
1.044329987e-11
1.044329998e-11
1.04433e-11
1.04433e-11
1.044330001e-11
1.044330001e-11
1.044330001e-11
1.044330001e-11
1.044330001e-11
1.044330001e-11
1.044330001e-11
1.044330001e-11
1.044330001e-11
1.044330001e-11
1.044330001e-11
1.044330001e-11
1.044330001e-11
1.044330001e-11
1.044330001e-11
1.044330001e-11
1.044330001e-11
1.044330001e-11
1.044330001e-11
1.044330001e-11
1.044330001e-11
1.044330001e-11
1.044330001e-11
1.044330001e-11
1.044330001e-11
1.044330001e-11
1.044330001e-11
1.044330001e-11
1.044330001e-11
1.044330001e-11
1.044330001e-11
1.044330001e-11
1.044330001e-11
1.044330001e-11
1.044330001e-11
1.044330001e-11
1.044330001e-11
1.044330001e-11
1.044330001e-11
1.044330001e-11
1.044330001e-11
1.044330001e-11
1.044330001e-11
1.044330001e-11
1.044330001e-11
1.044330001e-11
1.044330001e-11
1.044330001e-11
1.044330001e-11
1.044330001e-11
1.044330001e-11
1.044330001e-11
1.044330001e-11
1.044330001e-11
1.044330001e-11
1.044330001e-11
1.044330001e-11
1.044330001e-11
1.044330001e-11
1.044330001e-11
1.044330001e-11
1.044330001e-11
1.044330001e-11
1.044330001e-11
1.044330001e-11
1.044330001e-11
1.044330001e-11
1.044330001e-11
1.044330001e-11
1.044330001e-11
1.044330001e-11
1.044330001e-11
1.044330001e-11
1.044330001e-11
1.044330001e-11
1.044330001e-11
1.044330001e-11
1.044330001e-11
1.044330001e-11
1.044330001e-11
1.044330001e-11
1.044330001e-11
1.044330001e-11
1.044330001e-11
1.044330001e-11
1.044330001e-11
1.044330001e-11
1.044330001e-11
1.044330001e-11
1.044330001e-11
1.044330001e-11
1.044330001e-11
1.044330001e-11
1.044330001e-11
1.044330001e-11
1.044330001e-11
1.044330001e-11
1.044330001e-11
1.044330001e-11
1.044330001e-11
1.044330001e-11
1.044330001e-11
1.044330001e-11
1.044330001e-11
1.044330001e-11
1.044330001e-11
1.044330001e-11
1.044330001e-11
1.044330001e-11
1.044330001e-11
1.044330001e-11
1.044330001e-11
1.044330001e-11
1.044330001e-11
1.044330001e-11
1.044330001e-11
1.044330001e-11
1.044330001e-11
1.044330001e-11
1.044330001e-11
1.044330001e-11
1.044330001e-11
1.044330001e-11
1.044330001e-11
1.044330001e-11
1.044330001e-11
1.044330001e-11
1.044330001e-11
1.044330001e-11
1.044330001e-11
1.044330001e-11
1.044330001e-11
1.044330001e-11
1.044330001e-11
1.044330001e-11
1.044330001e-11
1.044330001e-11
1.044330001e-11
1.044330001e-11
1.044330001e-11
1.044330001e-11
1.044330001e-11
1.044330001e-11
1.044330001e-11
1.044330001e-11
1.044330001e-11
1.044330001e-11
1.044330001e-11
1.044330001e-11
1.044330001e-11
1.044330001e-11
1.044330001e-11
1.044330001e-11
1.044330001e-11
1.044330001e-11
1.044330001e-11
1.044330001e-11
1.044330001e-11
1.044330001e-11
1.044330001e-11
1.044330001e-11
1.044330001e-11
1.044330001e-11
1.044330001e-11
1.044330001e-11
1.044330001e-11
1.044330001e-11
1.044330001e-11
1.044330001e-11
1.044330001e-11
1.044330001e-11
1.044330001e-11
1.044330001e-11
1.044330001e-11
1.044330001e-11
1.044330001e-11
1.044330001e-11
1.044330001e-11
1.044330001e-11
1.044330001e-11
1.044330001e-11
1.044330001e-11
1.044330001e-11
1.044330001e-11
1.044330001e-11
1.044330001e-11
1.044330001e-11
1.044330001e-11
1.044330001e-11
1.044330001e-11
1.044330001e-11
1.044330001e-11
1.044330001e-11
1.044330001e-11
1.044330001e-11
1.044330001e-11
1.044330001e-11
1.044330001e-11
1.044330001e-11
1.044330001e-11
1.044330001e-11
1.044330001e-11
1.044330001e-11
1.044330001e-11
1.044330001e-11
1.044330001e-11
1.044330001e-11
1.044330001e-11
1.044330001e-11
1.044330001e-11
1.044330001e-11
1.044330001e-11
1.044330001e-11
1.044330001e-11
1.044330001e-11
1.044330002e-11
1.044330005e-11
1.044330018e-11
1.044330062e-11
1.044330212e-11
1.044330683e-11
1.044332073e-11
1.04433591e-11
1.044345757e-11
1.04436912e-11
1.044419854e-11
1.044518959e-11
1.044687108e-11
1.044913265e-11
1.044996687e-11
1.045020391e-11
1.045045008e-11
1.045070589e-11
1.045097175e-11
1.045124804e-11
1.045153518e-11
1.045183362e-11
1.045214386e-11
1.045246642e-11
1.045280187e-11
1.045315079e-11
1.04535138e-11
1.045389154e-11
1.04542847e-11
1.045469398e-11
1.045512015e-11
1.045556399e-11
1.045602635e-11
1.04565081e-11
1.045701018e-11
1.045753356e-11
1.045807928e-11
1.045864842e-11
1.045924213e-11
1.045986164e-11
1.04605082e-11
1.046118319e-11
1.046188801e-11
1.046262417e-11
1.046339327e-11
1.046419697e-11
1.046503705e-11
1.046591537e-11
1.046683391e-11
1.046779474e-11
1.046880008e-11
1.046985224e-11
1.047095367e-11
1.047210697e-11
1.047331488e-11
1.047458028e-11
1.047590623e-11
1.047729594e-11
1.047875283e-11
1.048028048e-11
1.048188268e-11
1.048356343e-11
1.048532697e-11
1.048717775e-11
1.048912047e-11
1.049116011e-11
1.049330189e-11
1.049555133e-11
1.049791427e-11
1.050039684e-11
1.050300553e-11
1.050574714e-11
1.050862887e-11
1.051165829e-11
1.051484339e-11
1.051819256e-11
1.052171464e-11
1.052541896e-11
1.052931529e-11
1.053341394e-11
1.053772576e-11
1.054226213e-11
1.054703503e-11
1.055205704e-11
1.055734138e-11
1.056290193e-11
1.056875326e-11
1.057491067e-11
1.058139019e-11
1.058820865e-11
1.05953837e-11
1.060293382e-11
1.061087838e-11
1.061923767e-11
1.062803293e-11
1.063728639e-11
1.06470213e-11
1.065726198e-11
1.066803386e-11
1.06793635e-11
1.069127866e-11
1.07038083e-11
1.071698269e-11
1.073083336e-11
1.074539324e-11
1.076069663e-11
1.077677929e-11
1.079367844e-11
1.081143287e-11
1.083008292e-11
1.084967058e-11
1.087023948e-11
1.089183501e-11
1.09145043e-11
1.093829628e-11
1.096326178e-11
1.09894535e-11
1.101692612e-11
1.104573629e-11
1.107594274e-11
1.110760627e-11
1.114078981e-11
1.117555851e-11
1.121197969e-11
1.125012298e-11
1.12900603e-11
1.133186593e-11
1.137561653e-11
1.142139119e-11
1.146927147e-11
1.151934141e-11
1.157168761e-11
1.162639922e-11
1.168356797e-11
1.174328823e-11
1.180565701e-11
1.187077398e-11
1.193874151e-11
1.200966467e-11
1.208365126e-11
1.216081178e-11
1.224125953e-11
1.232511049e-11
1.241248345e-11
1.250349992e-11
1.259828414e-11
1.269696313e-11
1.279966661e-11
1.290652701e-11
1.301767946e-11
1.313326175e-11
1.325341434e-11
1.337828027e-11
1.350800516e-11
1.36427372e-11
1.378262704e-11
1.392782779e-11
1.407849496e-11
1.42347864e-11
1.439686223e-11
1.456488479e-11
1.473901857e-11
1.491943013e-11
1.510628805e-11
1.529976279e-11
1.550002667e-11
1.570725375e-11
1.592161975e-11
1.614330193e-11
1.637247902e-11
1.660933113e-11
1.685403958e-11
1.710678689e-11
1.736775656e-11
1.763713307e-11
1.791510166e-11
1.820184831e-11
1.849755955e-11
1.880242237e-11
1.911662412e-11
1.944035235e-11
1.977379472e-11
2.011713887e-11
2.04705723e-11
2.083428228e-11
2.120845567e-11
2.159327889e-11
2.198893772e-11
2.239561729e-11
2.281350187e-11
2.324277488e-11
2.368361869e-11
2.413621461e-11
2.460074275e-11
2.5077382e-11
2.556630989e-11
2.606770258e-11
2.658173478e-11
2.710857972e-11
2.76484091e-11
2.820139307e-11
2.876770019e-11
2.934749749e-11
2.994095041e-11
3.054822284e-11
3.11694772e-11
3.180487442e-11
3.245457404e-11
3.311873431e-11
3.379751225e-11
3.449106378e-11
3.519954385e-11
3.592310661e-11
3.666190554e-11
3.741609368e-11
3.818582381e-11
3.897124873e-11
3.977252146e-11
4.058979555e-11
4.142322538e-11
4.227296648e-11
4.31391759e-11
4.402201256e-11
4.492163768e-11
4.583821521e-11
4.677191227e-11
4.772289968e-11
4.869135243e-11
4.967745027e-11
5.068137827e-11
5.170332742e-11
5.274349531e-11
5.380208678e-11
5.487931464e-11
5.59754004e-11
5.709057505e-11
5.822507991e-11
5.937916742e-11
6.055310208e-11
6.174716134e-11
6.296163657e-11
6.419683406e-11
6.545307606e-11
6.673070186e-11
6.803006889e-11
6.935155391e-11
7.069555416e-11
7.206248866e-11
7.345279946e-11
7.486695297e-11
7.630544132e-11
7.776878381e-11
7.925752834e-11
8.077225292e-11
8.231356724e-11
8.388211427e-11
8.547857188e-11
8.710365456e-11
8.875811518e-11
9.044274677e-11
9.215838438e-11
9.390590698e-11
9.568623942e-11
9.750035447e-11
9.934927483e-11
1.012340753e-10
1.031558851e-10
1.051158898e-10
1.071153339e-10
1.091555232e-10
1.112378271e-10
1.133636812e-10
1.155345901e-10
1.177521296e-10
1.200179499e-10
1.223337782e-10
1.247014221e-10
1.271227716e-10
1.295998037e-10
1.321345846e-10
1.347292727e-10
1.373861226e-10
1.401074882e-10
1.428958267e-10
1.457537025e-10
1.486837907e-10
1.516888814e-10
1.547718833e-10
1.579358284e-10
1.611838758e-10
1.645193167e-10
1.679455787e-10
1.714662299e-10
1.750849856e-10
1.788057128e-10
1.826324362e-10
1.865693435e-10
1.906207925e-10
1.947913176e-10
1.990856359e-10
2.035086541e-10
2.080654764e-10
2.127614126e-10
2.176019871e-10
2.225929476e-10
2.277402754e-10
2.330501956e-10
2.385291888e-10
2.441840034e-10
2.500216691e-10
2.560495116e-10
2.622751684e-10
2.687066072e-10
2.753521446e-10
2.822204686e-10
2.893206623e-10
2.966622309e-10
3.042551321e-10
3.121098102e-10
3.202372342e-10
3.286489421e-10
3.373570896e-10
3.463745072e-10
3.557147644e-10
3.653922436e-10
3.754222253e-10
3.858209855e-10
3.966059085e-10
4.07795617e-10
4.194101229e-10
4.314710016e-10
4.440015948e-10
4.570272454e-10
4.705755718e-10
4.846767861e-10
4.993640656e-10
5.146739858e-10
5.306470259e-10
5.47328159e-10
5.647675415e-10
5.830213192e-10
6.021525704e-10
6.222324086e-10
6.433412736e-10
6.655704428e-10
6.890238013e-10
7.138199146e-10
7.40094458e-10
7.680030623e-10
7.977246496e-10
8.294653427e-10
8.634630486e-10
8.999928321e-10
9.393732157e-10
9.819735679e-10
1.028222766e-09
1.078619358e-09
1.133743475e-09
1.194270808e-09
1.260989001e-09
1.33481687e-09
1.416826958e-09
1.508271982e-09
1.610615854e-09
1.725570071e-09
1.855136396e-09
2.001656923e-09
2.167872795e-09
2.356993079e-09
2.572775551e-09
2.819621441e-09
3.102686563e-09
3.428011647e-09
3.80267519e-09
4.23497272e-09
4.734627012e-09
5.313034615e-09
5.983554927e-09
6.761849162e-09
7.666277791e-09
8.718366521e-09
9.943352602e-09
1.137082526e-08
1.303547643e-08
1.497798071e-08
1.724602662e-08
1.989552529e-08
2.29920266e-08
2.661237845e-08
3.084667066e-08
3.580051169e-08
4.159769515e-08
4.838332188e-08
5.632745496e-08
6.562939758e-08
7.652269859e-08
8.928100801e-08
1.042249245e-07
1.217300003e-07
1.422360954e-07
1.662583038e-07
1.943997096e-07
2.273662713e-07
2.659841794e-07
3.112200826e-07
3.642046412e-07
4.262599284e-07
4.989312797e-07
5.840242707e-07
6.836475973e-07
8.002627314e-07
9.367413347e-07
1.096431528e-06
1.28323423e-06
1.501690907e-06
1.757084186e-06
2.055552895e-06
2.404223191e-06
2.811357492e-06
3.28652295e-06
3.840781181e-06
4.486900807e-06
5.239594206e-06
6.115779437e-06
7.134867848e-06
8.319077125e-06
9.693768623e-06
1.128780663e-05
1.313393578e-05
1.52691711e-05
1.77351934e-05
2.057874036e-05
2.385198183e-05
2.761286565e-05
3.192541849e-05
3.685998506e-05
4.249338844e-05
4.890899488e-05
5.619666805e-05
6.445260076e-05
7.377901688e-05
8.428374149e-05
9.607964404e-05
0.0001092839662
0.0001240175532
0.0001404040119
0.0001585688268
0.0001786384627
0.0002007394892
0.0002249977562
0.0002515376495
0.0002804814485
0.0003119488039
0.0003460563497
0.000382917437
0.000422642002
0.0004653365383
0.0005111041581
0.0005600447321
0.0006122551431
0.0006678298047
0.000726847048
0.0007894382916
0.0008556001538
0.0009256518568
0.0009995951991
0.001077426619
0.001157739819
0.001240905713
0.001326239139
0.001412594395
0.001498160825
0.001580262596
0.001655426695
0.001719963725
0.001770743499
0.001805717215
0.001823889061
0.001825175429
0.001809479367
0.001777261003
0.001728955963
0.001664560252
0.001586349632
0.001495303378
0.001393751337
0.001283929443
0.00117082608
0.001057441126
0.0009473147341
0.0008433328614
0.0007474522506
0.0006606254234
0.000582482181
0.0005131835591
0.0004511449573
0.0003958457336
0.0003462216402
0.0003016384439
0.0002616501426
0.0002259454219
0.0001939395895
0.0001655055224
0.0001406167332
0.0001190023339
0.0001003611642
8.438720608e-05
7.077564023e-05
5.923416357e-05
4.948561398e-05
4.127631057e-05
3.450308534e-05
2.882556941e-05
2.402163045e-05
2.001985278e-05
1.668890089e-05
1.391696604e-05
1.161018153e-05
9.690229742e-06
8.093581126e-06
6.762928855e-06
5.654766732e-06
4.731587321e-06
3.962199186e-06
3.320672652e-06
2.785460787e-06
2.338665095e-06
1.965421848e-06
1.653389561e-06
1.392321441e-06
1.17370922e-06
9.904868415e-07
8.367842691e-07
7.077231466e-07
5.992473529e-07
5.079825466e-07
4.311198615e-07
3.663195683e-07
3.116313091e-07
2.654280537e-07
2.26351407e-07
1.93266305e-07
1.652234759e-07
1.414283213e-07
1.212151066e-07
1.040255433e-07
8.939100425e-08
7.691774618e-08
6.62746219e-08
5.718285542e-08
4.940752685e-08
4.275047554e-08
3.704438038e-08
3.214781771e-08
2.794113193e-08
2.432298206e-08
2.120745103e-08
1.852162387e-08
1.620355674e-08
1.420057239e-08
1.246782797e-08
1.096711085e-08
9.665824874e-09
8.53613648e-09
7.55425447e-09
6.699822163e-09
5.955403791e-09
5.306050161e-09
4.738930982e-09
4.243023332e-09
3.808847452e-09
3.428242443e-09
3.094175683e-09
2.800580719e-09
2.542219268e-09
2.314563611e-09
2.11369629e-09
1.936224463e-09
1.779206728e-09
1.640090515e-09
1.516658496e-09
1.406982647e-09
1.309384858e-09
1.222403097e-09
1.144762344e-09
1.075349583e-09
1.013192276e-09
9.574398026e-10
9.073474603e-10
8.622626463e-10
8.216129168e-10
7.848956594e-10
7.51669152e-10
7.215448152e-10
6.941804931e-10
6.692746203e-10
6.465611542e-10
6.258051672e-10
6.067990115e-10
5.89358977e-10
5.733223775e-10
5.585450081e-10
5.448989242e-10
5.322705001e-10
5.2055873e-10
5.096737407e-10
4.995354879e-10
4.900726122e-10
4.812214359e-10
4.729250801e-10
4.651326894e-10
4.577987494e-10
4.50882485e-10
4.443473305e-10
4.381604621e-10
4.32292385e-10
4.267165682e-10
4.214091224e-10
4.163485141e-10
4.115153126e-10
4.068919661e-10
4.024626026e-10
3.982128533e-10
3.94129696e-10
3.902013151e-10
3.864169781e-10
3.827669245e-10
3.792422675e-10
3.758349064e-10
3.725374478e-10
3.693431356e-10
3.662457889e-10
3.632397452e-10
3.603198108e-10
3.574812159e-10
3.547195742e-10
3.520308465e-10
3.494113089e-10
3.468575231e-10
3.443663104e-10
3.419347282e-10
3.395600486e-10
3.372397394e-10
3.349714469e-10
3.327529798e-10
3.305822961e-10
3.284574893e-10
3.263767779e-10
3.24338494e-10
3.223410747e-10
3.203830531e-10
3.184630508e-10
3.165797703e-10
3.147319895e-10
3.129185549e-10
3.111383771e-10
3.093904254e-10
3.076737238e-10
3.059873465e-10
3.043304149e-10
3.027020937e-10
3.011015879e-10
2.995281403e-10
2.979810285e-10
2.96459563e-10
2.949630845e-10
2.934909625e-10
2.92042593e-10
2.906173971e-10
2.892148191e-10
2.878343255e-10
2.864754035e-10
2.851375596e-10
2.838203189e-10
2.825232235e-10
2.81245832e-10
2.799877185e-10
2.787484714e-10
2.775276933e-10
2.763249996e-10
2.751400184e-10
2.739723895e-10
2.72821764e-10
2.716878035e-10
2.7057018e-10
2.694685753e-10
2.683826803e-10
2.673121947e-10
2.662568269e-10
2.652162933e-10
2.641903182e-10
2.63178633e-10
2.621809766e-10
2.611970946e-10
2.602267393e-10
2.592696692e-10
2.583256488e-10
2.573944488e-10
2.564758453e-10
2.555696199e-10
2.546755593e-10
2.537934556e-10
2.529231056e-10
2.520643107e-10
2.512168772e-10
2.503806154e-10
2.495553402e-10
2.487408705e-10
2.479370293e-10
2.471436434e-10
2.463605433e-10
2.455875633e-10
2.448245412e-10
2.440713181e-10
2.433277387e-10
2.425936507e-10
2.418689051e-10
2.411533557e-10
2.404468597e-10
2.397492767e-10
2.390604696e-10
2.383803038e-10
2.377086472e-10
2.370453705e-10
2.36390347e-10
2.357434522e-10
2.351045643e-10
2.344735636e-10
2.338503327e-10
2.332347566e-10
2.326267222e-10
2.320261188e-10
2.314328376e-10
2.308467717e-10
2.302678164e-10
2.296958688e-10
2.291308279e-10
2.285725944e-10
2.28021071e-10
2.274761619e-10
2.269377733e-10
2.264058128e-10
2.258801897e-10
2.253608149e-10
2.24847601e-10
2.243404619e-10
2.238393131e-10
2.233440715e-10
2.228546555e-10
2.223709848e-10
2.218929804e-10
2.21420565e-10
2.209536621e-10
2.204921968e-10
2.200360953e-10
2.195852852e-10
2.191396952e-10
2.18699255e-10
2.182638957e-10
2.178335494e-10
2.174081493e-10
2.169876298e-10
2.165719263e-10
2.16160975e-10
2.157547135e-10
2.153530801e-10
2.149560143e-10
2.145634563e-10
2.141753475e-10
2.137916301e-10
2.134122471e-10
2.130371426e-10
2.126662614e-10
2.122995492e-10
2.119369525e-10
2.115784187e-10
2.11223896e-10
2.108733333e-10
2.105266803e-10
2.101838874e-10
2.09844906e-10
2.095096879e-10
2.091781858e-10
2.088503531e-10
2.085261438e-10
2.082055127e-10
2.078884152e-10
2.075748073e-10
2.072646457e-10
2.069578878e-10
2.066544915e-10
2.063544153e-10
2.060576184e-10
2.057640606e-10
2.054737021e-10
2.051865038e-10
2.049024273e-10
2.046214344e-10
2.043434876e-10
2.040685502e-10
2.037965855e-10
2.035275577e-10
2.032614313e-10
2.029981716e-10
2.027377439e-10
2.024801143e-10
2.022252494e-10
2.019731161e-10
2.017236819e-10
2.014769145e-10
2.012327823e-10
2.009912541e-10
2.00752299e-10
2.005158865e-10
2.002819868e-10
2.0005057e-10
1.998216071e-10
1.995950693e-10
1.99370928e-10
1.991491553e-10
1.989297234e-10
1.987126051e-10
1.984977734e-10
1.982852016e-10
1.980748636e-10
1.978667335e-10
1.976607856e-10
1.974569948e-10
1.972553361e-10
1.970557851e-10
1.968583173e-10
1.966629089e-10
1.964695363e-10
1.962781761e-10
1.960888053e-10
1.959014011e-10
1.957159412e-10
1.955324034e-10
1.953507658e-10
1.951710068e-10
1.949931051e-10
1.948170397e-10
1.946427898e-10
1.944703348e-10
1.942996546e-10
1.941307292e-10
1.939635387e-10
1.937980638e-10
1.936342851e-10
1.934721836e-10
1.933117407e-10
1.931529377e-10
1.929957563e-10
1.928401785e-10
1.926861864e-10
1.925337625e-10
1.923828892e-10
1.922335494e-10
1.920857262e-10
1.919394028e-10
1.917945626e-10
1.916511892e-10
1.915092666e-10
1.913687788e-10
1.9122971e-10
1.910920446e-10
1.909557674e-10
1.908208632e-10
1.906873168e-10
1.905551137e-10
1.90424239e-10
1.902946785e-10
1.901664178e-10
1.900394429e-10
1.899137399e-10
1.897892949e-10
1.896660945e-10
1.895441252e-10
1.894233738e-10
1.893038273e-10
1.891854727e-10
1.890682972e-10
1.889522884e-10
1.888374336e-10
1.887237207e-10
1.886111375e-10
1.884996721e-10
1.883893125e-10
1.882800472e-10
1.881718645e-10
1.88064753e-10
1.879587015e-10
1.87853699e-10
1.877497343e-10
1.876467966e-10
1.875448753e-10
1.874439597e-10
1.873440395e-10
1.872451043e-10
1.871471438e-10
1.870501481e-10
1.869541073e-10
1.868590115e-10
1.86764851e-10
1.866716162e-10
1.865792978e-10
1.864878865e-10
1.863973729e-10
1.86307748e-10
1.86219003e-10
1.861311288e-10
1.860441167e-10
1.859579582e-10
1.858726448e-10
1.857881679e-10
1.857045193e-10
1.856216908e-10
1.855396743e-10
1.854584619e-10
1.853780457e-10
1.852984178e-10
1.852195706e-10
1.851414966e-10
1.850641883e-10
1.849876382e-10
1.849118392e-10
1.84836784e-10
1.847624656e-10
1.846888769e-10
1.846160112e-10
1.845438615e-10
1.844724211e-10
1.844016835e-10
1.843316422e-10
1.842622906e-10
1.841936224e-10
1.841256314e-10
1.840583114e-10
1.839916563e-10
1.8392566e-10
1.838603168e-10
1.837956206e-10
1.837315658e-10
1.836681467e-10
1.836053576e-10
1.835431932e-10
1.834816478e-10
1.834207162e-10
1.83360393e-10
1.833006732e-10
1.832415514e-10
1.831830226e-10
1.83125082e-10
1.830677244e-10
1.830109452e-10
1.829547394e-10
1.828991025e-10
1.828440297e-10
1.827895165e-10
1.827355584e-10
1.826821508e-10
1.826292896e-10
1.825769702e-10
1.825251885e-10
1.824739403e-10
1.824232215e-10
1.823730279e-10
1.823233555e-10
1.822742005e-10
1.822255588e-10
1.821774266e-10
1.821298001e-10
1.820826756e-10
1.820360494e-10
1.819899178e-10
1.819442771e-10
1.818991239e-10
1.818544547e-10
1.818102658e-10
1.81766554e-10
1.817233157e-10
1.816805477e-10
1.816382466e-10
1.815964091e-10
1.81555032e-10
1.815141119e-10
1.814736457e-10
1.814336302e-10
1.813940622e-10
1.813549386e-10
1.813162561e-10
1.812780117e-10
1.812402021e-10
1.812028242e-10
1.811658749e-10
1.81129351e-10
1.810932491e-10
1.81057566e-10
1.810222983e-10
1.809874424e-10
1.809529946e-10
1.80918951e-10
1.808853074e-10
1.80852059e-10
1.808192006e-10
1.80786726e-10
1.807546281e-10
1.807228985e-10
1.806915265e-10
1.806604996e-10
1.806298018e-10
1.805994133e-10
1.80569309e-10
1.805394597e-10
1.80298399e-10
1.799835924e-10
1.797457603e-10
1.795863567e-10
1.795047033e-10
1.795004823e-10
1.795737661e-10
1.797249735e-10
1.79954825e-10
1.80264303e-10
1.80654619e-10
1.811271834e-10
1.816835802e-10
1.823255437e-10
1.830549385e-10
1.838737404e-10
1.847840197e-10
1.857879241e-10
1.868876634e-10
1.880854924e-10
1.893836947e-10
1.907845641e-10
1.922903858e-10
1.939034146e-10
1.956258512e-10
1.974598163e-10
1.994073216e-10
2.014702367e-10
2.03650255e-10
2.059488539e-10
2.083672536e-10
2.109063719e-10
2.135667761e-10
2.163486327e-10
2.192516555e-10
2.222750512e-10
2.254174666e-10
2.286769345e-10
2.32050822e-10
2.35535782e-10
2.391277091e-10
2.428217008e-10
2.466120268e-10
2.504921074e-10
2.544545018e-10
2.584909092e-10
2.62592183e-10
2.667483605e-10
2.709487061e-10
2.751817726e-10
2.794354778e-10
2.836971963e-10
2.879538678e-10
2.921921178e-10
2.963983914e-10
3.005590963e-10
3.046607536e-10
3.086901522e-10
3.126345046e-10
3.164815998e-10
3.202199512e-10
3.238389333e-10
3.273289069e-10
3.306813289e-10
3.338888425e-10
3.369453481e-10
3.398460521e-10
3.425874921e-10
3.451675412e-10
3.475853873e-10
3.498414922e-10
3.519375307e-10
3.538763112e-10
3.55661681e-10
3.572984199e-10
3.587921224e-10
3.601490749e-10
3.613761285e-10
3.624805718e-10
3.634700052e-10
3.643522212e-10
3.651350903e-10
3.658264569e-10
3.664340446e-10
3.669653739e-10
3.674276905e-10
3.678279074e-10
3.681725588e-10
3.684677652e-10
3.687192112e-10
3.689321331e-10
3.691113156e-10
3.692610981e-10
3.693853866e-10
3.694876731e-10
3.695710583e-10
3.696382786e-10
3.696917348e-10
3.697335227e-10
3.697654634e-10
3.697891329e-10
3.698058918e-10
3.698169115e-10
3.698231994e-10
3.698256217e-10
3.698249228e-10
3.698217432e-10
3.698166339e-10
3.698100692e-10
3.698024568e-10
3.697941462e-10
3.69785435e-10
3.697765752e-10
3.697677762e-10
3.697592093e-10
3.697510102e-10
3.697432816e-10
3.69736096e-10
3.69729498e-10
3.697235068e-10
3.697181196e-10
3.697133138e-10
3.69709051e-10
3.697052796e-10
3.697019387e-10
3.696989609e-10
3.696962759e-10
3.696938134e-10
3.696915058e-10
3.696892905e-10
3.696871116e-10
3.69684922e-10
3.696826835e-10
3.696803681e-10
3.696779576e-10
3.696754431e-10
3.696728248e-10
3.696701101e-10
3.696673135e-10
3.69664454e-10
3.696615545e-10
3.696586398e-10
3.696557356e-10
3.696528671e-10
3.696500577e-10
3.696473284e-10
3.69644697e-10
3.69642178e-10
3.696397816e-10
3.696375146e-10
3.696353801e-10
3.696333778e-10
3.696315045e-10
3.696297548e-10
3.696281212e-10
3.696265951e-10
3.696251671e-10
3.696238274e-10
3.696225665e-10
3.696213753e-10
3.696202453e-10
3.696191691e-10
3.696181402e-10
3.696171534e-10
3.696162042e-10
3.696152895e-10
3.696144068e-10
3.696135547e-10
3.696127323e-10
3.696119396e-10
3.696111769e-10
3.69610445e-10
3.696097449e-10
3.696090783e-10
3.696084468e-10
3.696078521e-10
3.696072965e-10
3.696067819e-10
3.696063106e-10
3.696058847e-10
3.696055065e-10
3.696051779e-10
3.696049007e-10
3.696046766e-10
3.696045069e-10
3.696043925e-10
3.696043336e-10
3.696043303e-10
3.696043818e-10
3.696044869e-10
3.696046434e-10
3.69604849e-10
3.696051002e-10
3.696053934e-10
3.696057241e-10
3.696060874e-10
3.696064782e-10
3.696068906e-10
3.696073189e-10
3.69607757e-10
3.696081989e-10
3.696086384e-10
3.696090696e-10
3.696094869e-10
3.696098848e-10
3.696102584e-10
3.69610603e-10
3.696109145e-10
3.696111895e-10
3.69611425e-10
3.696116186e-10
3.696117686e-10
3.696118737e-10
3.696119335e-10
3.696119479e-10
3.696119175e-10
3.696118434e-10
3.696117271e-10
3.696115705e-10
3.696113759e-10
3.696111459e-10
3.696108833e-10
3.696105913e-10
3.696102729e-10
3.696099316e-10
3.696095705e-10
3.696091932e-10
3.696088028e-10
3.696084026e-10
3.696079958e-10
3.696075855e-10
3.696071743e-10
3.696067651e-10
3.696063605e-10
3.696059626e-10
3.696055736e-10
3.696051955e-10
3.696048299e-10
3.696044782e-10
3.696041418e-10
3.696038215e-10
3.696035183e-10
3.696032326e-10
3.696029648e-10
3.696027153e-10
3.696024843e-10
3.696022725e-10
3.696020823e-10
3.696019212e-10
3.696018114e-10
)
;

boundaryField
{
    inlet
    {
        type            fixedValue;
        value           uniform 0;
    }
    outlet
    {
        type            zeroGradient;
    }
    wall
    {
        type            empty;
    }
}


// ************************************************************************* //
