/*--------------------------------*- C++ -*----------------------------------*\
  =========                 |
  \\      /  F ield         | OpenFOAM: The Open Source CFD Toolbox
   \\    /   O peration     | Website:  https://openfoam.org
    \\  /    A nd           | Version:  7
     \\/     M anipulation  |
\*---------------------------------------------------------------------------*/
FoamFile
{
    version     2.0;
    format      ascii;
    class       volScalarField;
    location    "0.000558243009";
    object      CH2O_0;
}
// * * * * * * * * * * * * * * * * * * * * * * * * * * * * * * * * * * * * * //

dimensions      [0 0 0 0 0 0 0];

internalField   nonuniform List<scalar> 
1500
(
5.62063729e-13
2.196223579e-12
4.528733436e-12
6.795246575e-12
8.48454298e-12
9.515992876e-12
1.005195074e-11
1.029464179e-11
1.039202398e-11
1.042711013e-11
1.04385865e-11
1.044202639e-11
1.044297877e-11
1.044322399e-11
1.044328305e-11
1.044329643e-11
1.044329929e-11
1.044329987e-11
1.044329998e-11
1.04433e-11
1.04433e-11
1.044330001e-11
1.044330001e-11
1.044330001e-11
1.044330001e-11
1.044330001e-11
1.044330001e-11
1.044330001e-11
1.044330001e-11
1.044330001e-11
1.044330001e-11
1.044330001e-11
1.044330001e-11
1.044330001e-11
1.044330001e-11
1.044330001e-11
1.044330001e-11
1.044330001e-11
1.044330001e-11
1.044330001e-11
1.044330001e-11
1.044330001e-11
1.044330001e-11
1.044330001e-11
1.044330001e-11
1.044330001e-11
1.044330001e-11
1.044330001e-11
1.044330001e-11
1.044330001e-11
1.044330001e-11
1.044330001e-11
1.044330001e-11
1.044330001e-11
1.044330001e-11
1.044330001e-11
1.044330001e-11
1.044330001e-11
1.044330001e-11
1.044330001e-11
1.044330001e-11
1.044330001e-11
1.044330001e-11
1.044330001e-11
1.044330001e-11
1.044330001e-11
1.044330001e-11
1.044330001e-11
1.044330001e-11
1.044330001e-11
1.044330001e-11
1.044330001e-11
1.044330001e-11
1.044330001e-11
1.044330001e-11
1.044330001e-11
1.044330001e-11
1.044330001e-11
1.044330001e-11
1.044330001e-11
1.044330001e-11
1.044330001e-11
1.044330001e-11
1.044330001e-11
1.044330001e-11
1.044330001e-11
1.044330001e-11
1.044330001e-11
1.044330001e-11
1.044330001e-11
1.044330001e-11
1.044330001e-11
1.044330001e-11
1.044330001e-11
1.044330001e-11
1.044330001e-11
1.044330001e-11
1.044330001e-11
1.044330001e-11
1.044330001e-11
1.044330001e-11
1.044330001e-11
1.044330001e-11
1.044330001e-11
1.044330001e-11
1.044330001e-11
1.044330001e-11
1.044330001e-11
1.044330001e-11
1.044330001e-11
1.044330001e-11
1.044330001e-11
1.044330001e-11
1.044330001e-11
1.044330001e-11
1.044330001e-11
1.044330001e-11
1.044330001e-11
1.044330001e-11
1.044330001e-11
1.044330001e-11
1.044330001e-11
1.044330001e-11
1.044330001e-11
1.044330001e-11
1.044330001e-11
1.044330001e-11
1.044330001e-11
1.044330001e-11
1.044330001e-11
1.044330001e-11
1.044330001e-11
1.044330001e-11
1.044330001e-11
1.044330001e-11
1.044330001e-11
1.044330001e-11
1.044330001e-11
1.044330001e-11
1.044330001e-11
1.044330001e-11
1.044330001e-11
1.044330001e-11
1.044330001e-11
1.044330001e-11
1.044330001e-11
1.044330001e-11
1.044330001e-11
1.044330001e-11
1.044330001e-11
1.044330001e-11
1.044330001e-11
1.044330001e-11
1.044330001e-11
1.044330001e-11
1.044330001e-11
1.044330001e-11
1.044330001e-11
1.044330001e-11
1.044330001e-11
1.044330001e-11
1.044330001e-11
1.044330001e-11
1.044330001e-11
1.044330001e-11
1.044330001e-11
1.044330001e-11
1.044330001e-11
1.044330001e-11
1.044330001e-11
1.044330001e-11
1.044330001e-11
1.044330001e-11
1.044330001e-11
1.044330001e-11
1.044330001e-11
1.044330001e-11
1.044330001e-11
1.044330001e-11
1.044330001e-11
1.044330001e-11
1.044330001e-11
1.044330001e-11
1.044330001e-11
1.044330001e-11
1.044330001e-11
1.044330001e-11
1.044330001e-11
1.044330001e-11
1.044330001e-11
1.044330001e-11
1.044330001e-11
1.044330001e-11
1.044330001e-11
1.044330001e-11
1.044330001e-11
1.044330001e-11
1.044330001e-11
1.044330001e-11
1.044330001e-11
1.044330001e-11
1.044330001e-11
1.044330001e-11
1.044330001e-11
1.044330001e-11
1.044330001e-11
1.044330001e-11
1.044330001e-11
1.044330001e-11
1.044330001e-11
1.044330001e-11
1.044330001e-11
1.044330001e-11
1.044330001e-11
1.044330001e-11
1.044330001e-11
1.044330001e-11
1.044330001e-11
1.044330001e-11
1.044330001e-11
1.044330001e-11
1.044330001e-11
1.044330001e-11
1.044330001e-11
1.044330001e-11
1.044330001e-11
1.044330001e-11
1.044330001e-11
1.044330001e-11
1.044330001e-11
1.044330001e-11
1.044330001e-11
1.044330001e-11
1.044330001e-11
1.044330001e-11
1.044330001e-11
1.044330002e-11
1.044330005e-11
1.044330018e-11
1.044330062e-11
1.044330212e-11
1.044330684e-11
1.044332076e-11
1.044335917e-11
1.044345777e-11
1.044369173e-11
1.044419984e-11
1.044519243e-11
1.04468766e-11
1.044914184e-11
1.044997756e-11
1.045021486e-11
1.04504614e-11
1.045071766e-11
1.045098398e-11
1.045126075e-11
1.045154838e-11
1.045184732e-11
1.045215808e-11
1.04524812e-11
1.045281722e-11
1.045316673e-11
1.045353036e-11
1.045390875e-11
1.045430258e-11
1.045471257e-11
1.045513948e-11
1.04555841e-11
1.045604726e-11
1.045652986e-11
1.045703282e-11
1.045755712e-11
1.04581038e-11
1.045867396e-11
1.045926873e-11
1.045988934e-11
1.046053707e-11
1.046121327e-11
1.046191937e-11
1.046265688e-11
1.046342738e-11
1.046423255e-11
1.046507417e-11
1.046595412e-11
1.046687436e-11
1.046783698e-11
1.04688442e-11
1.046989833e-11
1.047100184e-11
1.047215732e-11
1.047336752e-11
1.047463534e-11
1.047596382e-11
1.04773562e-11
1.04788159e-11
1.04803465e-11
1.048195181e-11
1.048363585e-11
1.048540284e-11
1.048725725e-11
1.04892038e-11
1.049124746e-11
1.049339349e-11
1.049564741e-11
1.049801507e-11
1.050050261e-11
1.050311653e-11
1.050586366e-11
1.050875121e-11
1.051178677e-11
1.051497833e-11
1.051833432e-11
1.052186359e-11
1.052557547e-11
1.052947979e-11
1.053358686e-11
1.053790755e-11
1.054245327e-11
1.054723603e-11
1.055226842e-11
1.055756371e-11
1.056313579e-11
1.056899927e-11
1.057516948e-11
1.058166248e-11
1.058849515e-11
1.059568516e-11
1.060325103e-11
1.061121217e-11
1.061958892e-11
1.062840255e-11
1.063767534e-11
1.06474306e-11
1.065769268e-11
1.066848706e-11
1.067984036e-11
1.06917804e-11
1.070433619e-11
1.071753805e-11
1.073141759e-11
1.074600779e-11
1.076134302e-11
1.077745909e-11
1.079439333e-11
1.081218456e-11
1.083087323e-11
1.085050138e-11
1.087111274e-11
1.089275277e-11
1.091546868e-11
1.093930951e-11
1.096432616e-11
1.099057143e-11
1.10181001e-11
1.104696891e-11
1.10772367e-11
1.110896436e-11
1.114221495e-11
1.11770537e-11
1.121354807e-11
1.125176778e-11
1.129178489e-11
1.133367378e-11
1.137751124e-11
1.142337649e-11
1.14713512e-11
1.152151957e-11
1.157396831e-11
1.16287867e-11
1.168606663e-11
1.174590259e-11
1.180839174e-11
1.187363389e-11
1.194173156e-11
1.201278997e-11
1.208691705e-11
1.216422348e-11
1.224482267e-11
1.232883081e-11
1.241636679e-11
1.250755231e-11
1.260251176e-11
1.270137232e-11
1.280426385e-11
1.291131896e-11
1.302267293e-11
1.313846372e-11
1.325883193e-11
1.338392077e-11
1.351387603e-11
1.364884603e-11
1.37889816e-11
1.3934436e-11
1.40853649e-11
1.424192628e-11
1.440428043e-11
1.457258985e-11
1.474701916e-11
1.492773507e-11
1.511490629e-11
1.530870344e-11
1.550929897e-11
1.571686707e-11
1.593158358e-11
1.615362589e-11
1.638317288e-11
1.662040473e-11
1.686550291e-11
1.711865002e-11
1.738002969e-11
1.764982648e-11
1.792822574e-11
1.821541351e-11
1.851157643e-11
1.881690155e-11
1.91315763e-11
1.945578829e-11
1.978972525e-11
2.013357486e-11
2.048752467e-11
2.085176198e-11
2.122647371e-11
2.161184628e-11
2.200806551e-11
2.241531653e-11
2.283378364e-11
2.326365024e-11
2.370509871e-11
2.415831035e-11
2.462346526e-11
2.510074229e-11
2.559031895e-11
2.609237138e-11
2.660707426e-11
2.713460076e-11
2.767512253e-11
2.822880969e-11
2.879583075e-11
2.937635266e-11
2.997054082e-11
3.057855907e-11
3.120056975e-11
3.183673373e-11
3.248721049e-11
3.315215822e-11
3.383173388e-11
3.452609333e-11
3.523539146e-11
3.595978237e-11
3.669941949e-11
3.745445581e-11
3.82250441e-11
3.901133711e-11
3.981348784e-11
4.063164983e-11
4.146597746e-11
4.231662629e-11
4.318375336e-11
4.406751767e-11
4.496808047e-11
4.588560579e-11
4.682026086e-11
4.777221659e-11
4.874164811e-11
4.972873533e-11
5.073366351e-11
5.175662385e-11
5.279781419e-11
5.385743962e-11
5.493571326e-11
5.603285697e-11
5.714910211e-11
5.82846904e-11
5.943987475e-11
6.061492015e-11
6.181010458e-11
6.302572001e-11
6.426207337e-11
6.551948759e-11
6.67983027e-11
6.809887694e-11
6.942158791e-11
7.076683379e-11
7.213503458e-11
7.352663336e-11
7.494209767e-11
7.638192083e-11
7.78466234e-11
7.933675463e-11
8.085289395e-11
8.239565256e-11
8.3965675e-11
8.556364083e-11
8.719026633e-11
8.884630621e-11
9.053255549e-11
9.224985126e-11
9.399907468e-11
9.578115289e-11
9.759706101e-11
9.944782429e-11
1.013345202e-10
1.032582805e-10
1.052202938e-10
1.072218076e-10
1.092641308e-10
1.113486361e-10
1.134767626e-10
1.156500181e-10
1.178699825e-10
1.201383095e-10
1.224567307e-10
1.248270577e-10
1.272511846e-10
1.297310932e-10
1.322688545e-10
1.348666316e-10
1.37526684e-10
1.402513711e-10
1.430431555e-10
1.459046071e-10
1.488384071e-10
1.518473513e-10
1.549343552e-10
1.58102457e-10
1.613548228e-10
1.646947507e-10
1.681256756e-10
1.716511731e-10
1.75274966e-10
1.790009294e-10
1.828330962e-10
1.867756627e-10
1.908329955e-10
1.950096384e-10
1.993103181e-10
2.03739951e-10
2.083036513e-10
2.130067396e-10
2.17854751e-10
2.228534445e-10
2.28008813e-10
2.333270938e-10
2.388147801e-10
2.444786333e-10
2.503256963e-10
2.56363309e-10
2.625991234e-10
2.690411221e-10
2.756976377e-10
2.825773743e-10
2.896894319e-10
2.970433337e-10
3.046490558e-10
3.125170619e-10
3.206583415e-10
3.290844538e-10
3.378075771e-10
3.468405654e-10
3.561970135e-10
3.658913304e-10
3.759388247e-10
3.863558025e-10
3.971596805e-10
4.083691159e-10
4.200041579e-10
4.320864223e-10
4.446392943e-10
4.576881647e-10
4.712607041e-10
4.853871817e-10
5.001008382e-10
5.15438319e-10
5.314401813e-10
5.481514848e-10
5.656224832e-10
5.839094318e-10
6.030755321e-10
6.231920372e-10
6.44339545e-10
6.666095132e-10
6.901060322e-10
7.149479026e-10
7.412710687e-10
7.692314705e-10
7.990083852e-10
8.308083451e-10
8.648697294e-10
9.014681479e-10
9.409227537e-10
9.836036445e-10
1.029940543e-09
1.080432975e-09
1.135662207e-09
1.196305249e-09
1.263151272e-09
1.337120868e-09
1.419288641e-09
1.510909703e-09
1.613450746e-09
1.728626501e-09
1.858442486e-09
2.005245157e-09
2.171780725e-09
2.361264146e-09
2.577460033e-09
2.82477756e-09
3.10838176e-09
3.434324068e-09
3.809695403e-09
4.242805703e-09
4.74339446e-09
5.322877603e-09
5.994636993e-09
6.774359871e-09
7.680436847e-09
8.734428523e-09
9.961612524e-09
1.139162477e-08
1.305921119e-08
1.500510872e-08
1.727707792e-08
1.993111301e-08
2.303285971e-08
2.665927639e-08
3.090058005e-08
3.586252556e-08
4.166907485e-08
4.846552211e-08
5.64221524e-08
6.573852339e-08
7.664847545e-08
8.942599206e-08
1.043920529e-07
1.219226451e-07
1.42458124e-07
1.66514147e-07
1.94694438e-07
2.277056804e-07
2.663748842e-07
3.116696225e-07
3.647215949e-07
4.268540397e-07
4.996135939e-07
5.848072807e-07
6.845453982e-07
8.012911817e-07
9.379182212e-07
1.097776728e-06
1.284769869e-06
1.503441491e-06
1.759076711e-06
2.057816908e-06
2.406790778e-06
2.814263169e-06
3.289803424e-06
3.844474917e-06
4.491047366e-06
5.244233255e-06
6.120949358e-06
7.140603821e-06
8.325408561e-06
9.700715769e-06
1.129537617e-05
1.314211521e-05
1.52779216e-05
1.774444096e-05
2.058836479e-05
2.386180341e-05
2.762262899e-05
3.193477333e-05
3.686846366e-05
4.250037942e-05
4.891371319e-05
5.619812118e-05
6.444955129e-05
7.376994176e-05
8.426678854e-05
9.605258669e-05
0.0001092441576
0.0001239618808
0.0001403288551
0.0001584700179
0.0001785112542
0.0002005785286
0.0002247970687
0.0002512906293
0.0002801808594
0.0003115867865
0.0003456244367
0.0003824065714
0.0004220425591
0.0004646383468
0.0005102965113
0.000559116367
0.0006111941398
0.0006666233922
0.0007254715255
0.0007878856062
0.0008538090998
0.0009236753791
0.0009974956298
0.001075330086
0.001155411321
0.001238382073
0.001323572237
0.001409844225
0.001495391867
0.001577546765
0.001652858428
0.00171766634
0.001768844797
0.001804334366
0.001823058832
0.00182500212
0.001809901398
0.001778260807
0.001730453357
0.001666621394
0.001588760424
0.001497960863
0.001396460484
0.001287226668
0.001173962027
0.00106041291
0.0009500904583
0.0008458761954
0.0007497308688
0.0006626133845
0.0005843914765
0.0005148678971
0.0004526863082
0.0003973361528
0.0003477149725
0.0003031562968
0.0002631773532
0.0002274257948
0.0001954630752
0.0001669950848
0.0001420195828
0.0001202821014
0.0001015024361
8.538733026e-05
7.164940199e-05
5.999771063e-05
5.015604386e-05
4.187397223e-05
3.499560708e-05
2.922814449e-05
2.437221678e-05
2.03232404e-05
1.694897241e-05
1.413788857e-05
1.179648275e-05
9.846541949e-06
8.223262147e-06
6.871002576e-06
5.744740249e-06
4.806467842e-06
4.024527877e-06
3.372576966e-06
2.828711774e-06
2.374732362e-06
1.995522893e-06
1.678532435e-06
1.413340832e-06
1.191296561e-06
1.005215279e-06
8.491292669e-07
7.180794632e-07
6.079430018e-07
5.15290315e-07
4.372667817e-07
3.714947356e-07
3.159923405e-07
2.69106426e-07
2.294568742e-07
1.958905562e-07
1.674431676e-07
1.43307592e-07
1.228076642e-07
1.053763985e-07
9.053791082e-08
7.789239858e-08
6.710365138e-08
5.788865918e-08
5.000895859e-08
4.3263421e-08
3.748223719e-08
3.252189593e-08
2.826098845e-08
2.459670015e-08
2.144187411e-08
1.872255122e-08
1.637590747e-08
1.434852294e-08
1.259492752e-08
1.107637826e-08
9.759830242e-09
8.617069753e-09
7.62398327e-09
6.759940552e-09
6.007273443e-09
5.350835153e-09
4.777627221e-09
4.27648348e-09
3.837802043e-09
3.453317807e-09
3.11590916e-09
2.819433598e-09
2.558587792e-09
2.328788349e-09
2.126070126e-09
1.946999412e-09
1.788599752e-09
1.648288496e-09
1.523822485e-09
1.413251505e-09
1.314878367e-09
1.227224631e-09
1.149001158e-09
1.079082776e-09
1.016486476e-09
9.603526153e-10
9.099287127e-10
8.645554569e-10
8.236546155e-10
7.867185796e-10
7.533013125e-10
7.230105076e-10
6.95500788e-10
6.704678037e-10
6.476431033e-10
6.267896758e-10
6.076980696e-10
5.901830128e-10
5.740804666e-10
5.592450536e-10
5.455478129e-10
5.328742373e-10
5.211225562e-10
5.102022324e-10
5.00032645e-10
4.905419335e-10
4.816659847e-10
4.733475407e-10
4.655354166e-10
4.581838108e-10
4.51251698e-10
4.447022945e-10
4.385025863e-10
4.326229124e-10
4.270365968e-10
4.217196232e-10
4.166503472e-10
4.118092409e-10
4.071786672e-10
4.027426794e-10
3.984868432e-10
3.943980783e-10
3.904645188e-10
3.86675387e-10
3.830208832e-10
3.794920858e-10
3.760808631e-10
3.727797944e-10
3.695820997e-10
3.664815762e-10
3.634725427e-10
3.605497883e-10
3.577085282e-10
3.549443623e-10
3.522532395e-10
3.49631425e-10
3.470754708e-10
3.445821894e-10
3.421486304e-10
3.397720588e-10
3.37449936e-10
3.351799023e-10
3.329597615e-10
3.307874665e-10
3.286611067e-10
3.265788964e-10
3.245391644e-10
3.225403443e-10
3.205809664e-10
3.186596492e-10
3.167750931e-10
3.149260733e-10
3.131114344e-10
3.113300849e-10
3.095809923e-10
3.078631788e-10
3.061757173e-10
3.045177276e-10
3.028883731e-10
3.012868575e-10
2.997124223e-10
2.981643443e-10
2.966419328e-10
2.951445277e-10
2.936714975e-10
2.922222374e-10
2.907961675e-10
2.893927317e-10
2.880113958e-10
2.866516461e-10
2.853129887e-10
2.839949479e-10
2.826970655e-10
2.814188994e-10
2.801600233e-10
2.789200252e-10
2.776985071e-10
2.764950841e-10
2.753093839e-10
2.741410458e-10
2.729897206e-10
2.718550696e-10
2.707367645e-10
2.696344867e-10
2.685479267e-10
2.674767842e-10
2.664207672e-10
2.653795917e-10
2.643529818e-10
2.633406688e-10
2.623423912e-10
2.613578945e-10
2.603869307e-10
2.594292581e-10
2.584846411e-10
2.5755285e-10
2.566336608e-10
2.55726855e-10
2.548322191e-10
2.53949545e-10
2.530786293e-10
2.522192733e-10
2.51371283e-10
2.505344688e-10
2.497086452e-10
2.488936312e-10
2.480892495e-10
2.472953268e-10
2.465116936e-10
2.457381838e-10
2.449746353e-10
2.442208891e-10
2.434767896e-10
2.427421845e-10
2.420169246e-10
2.413008639e-10
2.40593859e-10
2.398957699e-10
2.39206459e-10
2.385257918e-10
2.37853636e-10
2.371898624e-10
2.365343441e-10
2.358869565e-10
2.352475776e-10
2.346160878e-10
2.339923695e-10
2.333763077e-10
2.327677893e-10
2.321667033e-10
2.315729409e-10
2.309863952e-10
2.304069614e-10
2.298345365e-10
2.292690194e-10
2.287103108e-10
2.281583133e-10
2.276129311e-10
2.270740702e-10
2.265416382e-10
2.260155444e-10
2.254956997e-10
2.249820164e-10
2.244744086e-10
2.239727915e-10
2.234770821e-10
2.229871986e-10
2.225030608e-10
2.220245898e-10
2.215517078e-10
2.210843386e-10
2.206224071e-10
2.201658395e-10
2.197145634e-10
2.192685073e-10
2.18827601e-10
2.183917755e-10
2.179609628e-10
2.175350962e-10
2.1711411e-10
2.166979393e-10
2.162865207e-10
2.158797914e-10
2.154776899e-10
2.150801555e-10
2.146871285e-10
2.142985501e-10
2.139143625e-10
2.135345088e-10
2.131589329e-10
2.127875796e-10
2.124203947e-10
2.120573245e-10
2.116983164e-10
2.113433186e-10
2.109922799e-10
2.1064515e-10
2.103018794e-10
2.099624193e-10
2.096267215e-10
2.092947387e-10
2.089664243e-10
2.086417322e-10
2.083206172e-10
2.080030346e-10
2.076889405e-10
2.073782915e-10
2.07071045e-10
2.067671588e-10
2.064665915e-10
2.061693022e-10
2.058752506e-10
2.055843971e-10
2.052967024e-10
2.05012128e-10
2.047306358e-10
2.044521884e-10
2.041767487e-10
2.039042804e-10
2.036347474e-10
2.033681143e-10
2.031043463e-10
2.028434087e-10
2.025852677e-10
2.023298898e-10
2.020772418e-10
2.018272911e-10
2.015800057e-10
2.013353538e-10
2.010933042e-10
2.008538259e-10
2.006168885e-10
2.00382462e-10
2.001505168e-10
1.999210236e-10
1.996939537e-10
1.994692785e-10
1.992469701e-10
1.990270006e-10
1.988093428e-10
1.985939697e-10
1.983808547e-10
1.981699715e-10
1.979612942e-10
1.977547973e-10
1.975504555e-10
1.973482439e-10
1.971481379e-10
1.969501133e-10
1.96754146e-10
1.965602125e-10
1.963682894e-10
1.961783537e-10
1.959903826e-10
1.958043538e-10
1.956202449e-10
1.954380343e-10
1.952577002e-10
1.950792213e-10
1.949025767e-10
1.947277455e-10
1.945547073e-10
1.943834416e-10
1.942139287e-10
1.940461486e-10
1.93880082e-10
1.937157095e-10
1.935530122e-10
1.933919713e-10
1.932325683e-10
1.930747848e-10
1.929186028e-10
1.927640044e-10
1.92610972e-10
1.924594883e-10
1.923095359e-10
1.921610981e-10
1.920141579e-10
1.918686989e-10
1.917247047e-10
1.915821591e-10
1.914410463e-10
1.913013504e-10
1.91163056e-10
1.910261476e-10
1.908906102e-10
1.907564286e-10
1.906235882e-10
1.904920744e-10
1.903618726e-10
1.902329687e-10
1.901053486e-10
1.899789984e-10
1.898539043e-10
1.897300529e-10
1.896074306e-10
1.894860244e-10
1.89365821e-10
1.892468078e-10
1.891289718e-10
1.890123005e-10
1.888967815e-10
1.887824026e-10
1.886691516e-10
1.885570165e-10
1.884459856e-10
1.883360471e-10
1.882271895e-10
1.881194015e-10
1.880126719e-10
1.879069894e-10
1.878023432e-10
1.876987225e-10
1.875961165e-10
1.874945147e-10
1.873939067e-10
1.872942822e-10
1.87195631e-10
1.870979431e-10
1.870012086e-10
1.869054178e-10
1.868105609e-10
1.867166285e-10
1.866236111e-10
1.865314995e-10
1.864402844e-10
1.863499569e-10
1.86260508e-10
1.861719288e-10
1.860842107e-10
1.859973451e-10
1.859113235e-10
1.858261374e-10
1.857417788e-10
1.856582393e-10
1.85575511e-10
1.85493586e-10
1.854124563e-10
1.853321142e-10
1.852525522e-10
1.851737626e-10
1.850957382e-10
1.850184714e-10
1.849419552e-10
1.848661823e-10
1.847911457e-10
1.847168386e-10
1.84643254e-10
1.845703852e-10
1.844982256e-10
1.844267685e-10
1.843560075e-10
1.842859362e-10
1.842165484e-10
1.841478377e-10
1.840797981e-10
1.840124236e-10
1.839457081e-10
1.838796458e-10
1.83814231e-10
1.837494579e-10
1.83685321e-10
1.836218146e-10
1.835589333e-10
1.834966717e-10
1.834350246e-10
1.833739866e-10
1.833135527e-10
1.832537178e-10
1.831944769e-10
1.83135825e-10
1.830777573e-10
1.83020269e-10
1.829633554e-10
1.829070118e-10
1.828512337e-10
1.827960166e-10
1.82741356e-10
1.826872476e-10
1.82633687e-10
1.8258067e-10
1.825281924e-10
1.824762501e-10
1.82424839e-10
1.823739551e-10
1.823235945e-10
1.822737533e-10
1.822244276e-10
1.821756137e-10
1.821273078e-10
1.820795063e-10
1.820322055e-10
1.819854019e-10
1.819390919e-10
1.81893272e-10
1.818479388e-10
1.818030889e-10
1.81758719e-10
1.817148256e-10
1.816714056e-10
1.816284557e-10
1.815859726e-10
1.815439532e-10
1.815023943e-10
1.814612927e-10
1.814206454e-10
1.813804493e-10
1.813407013e-10
1.813013983e-10
1.812625373e-10
1.812241153e-10
1.811861292e-10
1.81148576e-10
1.811114527e-10
1.810747562e-10
1.810384836e-10
1.810026316e-10
1.809671973e-10
1.809321775e-10
1.808975689e-10
1.808633682e-10
1.808295719e-10
1.80796176e-10
1.807631765e-10
1.807305683e-10
1.806983457e-10
1.806665013e-10
1.806350253e-10
1.806039052e-10
1.805731236e-10
1.805426547e-10
1.805124631e-10
1.802687221e-10
1.79947915e-10
1.797060322e-10
1.795436547e-10
1.794600092e-10
1.794547114e-10
1.795277687e-10
1.796795357e-10
1.79910668e-10
1.802220837e-10
1.806149299e-10
1.810905538e-10
1.816504773e-10
1.822963746e-10
1.83030052e-10
1.838534294e-10
1.847685236e-10
1.857774321e-10
1.868823169e-10
1.880853887e-10
1.893888898e-10
1.907950762e-10
1.923061984e-10
1.939244796e-10
1.956520923e-10
1.974911319e-10
1.994435871e-10
2.015113081e-10
2.036959708e-10
2.059990373e-10
2.084217151e-10
2.109649104e-10
2.13629181e-10
2.164146854e-10
2.1932113e-10
2.223477158e-10
2.254930842e-10
2.287552634e-10
2.321316165e-10
2.356187927e-10
2.392126834e-10
2.429083833e-10
2.467001597e-10
2.505814307e-10
2.54544754e-10
2.585818277e-10
2.626835053e-10
2.668398242e-10
2.710400509e-10
2.752727408e-10
2.795258156e-10
2.837866554e-10
2.880422068e-10
2.922791038e-10
2.964838013e-10
3.006427186e-10
3.047423896e-10
3.087696178e-10
3.12711631e-10
3.165562351e-10
3.202919609e-10
3.239082012e-10
3.273953355e-10
3.307448395e-10
3.339493756e-10
3.370028627e-10
3.399005257e-10
3.426389198e-10
3.452159351e-10
3.476307756e-10
3.498839181e-10
3.519770511e-10
3.539129959e-10
3.556956111e-10
3.573296864e-10
3.588208253e-10
3.601753215e-10
3.614000322e-10
3.625022506e-10
3.63489581e-10
3.643698178e-10
3.65150833e-10
3.658404708e-10
3.664464542e-10
3.669763014e-10
3.674372558e-10
3.678362268e-10
3.681797443e-10
3.684739244e-10
3.687244465e-10
3.689365414e-10
3.691149881e-10
3.692641199e-10
3.693878369e-10
3.694896249e-10
3.695725786e-10
3.696394285e-10
3.696925695e-10
3.697340919e-10
3.697658113e-10
3.697892989e-10
3.698059101e-10
3.698168121e-10
3.698230082e-10
3.698253604e-10
3.6982461e-10
3.698213941e-10
3.69816261e-10
3.698096824e-10
3.698020638e-10
3.697937526e-10
3.697850451e-10
3.697761915e-10
3.697674003e-10
3.697588418e-10
3.69750651e-10
3.697429299e-10
3.697357507e-10
3.697291576e-10
3.697231698e-10
3.697177842e-10
3.697129786e-10
3.697087145e-10
3.697049405e-10
3.697015958e-10
3.696986133e-10
3.69695923e-10
3.696934549e-10
3.696911415e-10
3.696889205e-10
3.696867363e-10
3.696845419e-10
3.696822995e-10
3.69679981e-10
3.696775684e-10
3.69675053e-10
3.696724348e-10
3.696697218e-10
3.696669279e-10
3.696640724e-10
3.696611781e-10
3.696582698e-10
3.696553731e-10
3.696525131e-10
3.696497131e-10
3.696469941e-10
3.696443738e-10
3.696418664e-10
3.696394823e-10
3.696372281e-10
3.696351067e-10
3.696331178e-10
3.696312583e-10
3.696295224e-10
3.696279029e-10
3.696263909e-10
3.696249771e-10
3.696236516e-10
3.696224049e-10
3.696212278e-10
3.696201119e-10
3.696190496e-10
3.696180346e-10
3.696170613e-10
3.696161255e-10
3.696152238e-10
3.696143539e-10
3.696135142e-10
3.696127039e-10
3.696119227e-10
3.69611171e-10
3.696104496e-10
3.696097594e-10
3.69609102e-10
3.69608479e-10
3.696078922e-10
3.696073437e-10
3.696068355e-10
3.696063697e-10
3.696059487e-10
3.696055746e-10
3.696052493e-10
3.696049748e-10
3.696047527e-10
3.696045843e-10
3.696044706e-10
3.696044119e-10
3.696044083e-10
3.696044592e-10
3.696045631e-10
3.696047184e-10
3.696049224e-10
3.69605172e-10
3.696054634e-10
3.696057924e-10
3.696061542e-10
3.696065436e-10
3.696069549e-10
3.696073824e-10
3.696078202e-10
3.696082621e-10
3.696087023e-10
3.696091347e-10
3.696095539e-10
3.696099543e-10
3.69610331e-10
3.696106795e-10
3.696109957e-10
3.696112759e-10
3.696115173e-10
3.696117175e-10
3.696118745e-10
3.696119873e-10
3.696120552e-10
3.69612078e-10
3.696120564e-10
3.696119912e-10
3.696118838e-10
3.696117361e-10
3.696115503e-10
3.696113288e-10
3.696110743e-10
3.696107899e-10
3.696104786e-10
3.696101436e-10
3.696097881e-10
3.696094153e-10
3.696090286e-10
3.696086311e-10
3.696082258e-10
3.696078157e-10
3.696074037e-10
3.696069925e-10
3.696065845e-10
3.696061821e-10
3.696057873e-10
3.696054022e-10
3.696050284e-10
3.696046674e-10
3.696043204e-10
3.696039887e-10
3.696036729e-10
3.696033738e-10
3.696030919e-10
3.696028274e-10
3.696025807e-10
3.696023527e-10
3.696021457e-10
3.696019674e-10
3.696018401e-10
)
;

boundaryField
{
    inlet
    {
        type            fixedValue;
        value           uniform 0;
    }
    outlet
    {
        type            zeroGradient;
    }
    wall
    {
        type            empty;
    }
}


// ************************************************************************* //
