/*--------------------------------*- C++ -*----------------------------------*\
  =========                 |
  \\      /  F ield         | OpenFOAM: The Open Source CFD Toolbox
   \\    /   O peration     | Website:  https://openfoam.org
    \\  /    A nd           | Version:  7
     \\/     M anipulation  |
\*---------------------------------------------------------------------------*/
FoamFile
{
    version     2.0;
    format      ascii;
    class       volScalarField;
    location    "0.000558243009";
    object      CH3;
}
// * * * * * * * * * * * * * * * * * * * * * * * * * * * * * * * * * * * * * //

dimensions      [0 0 0 0 0 0 0];

internalField   nonuniform List<scalar> 
1500
(
1.383376736e-29
1.245041262e-29
1.07073367e-29
9.193301725e-30
8.172049061e-30
7.584546395e-30
7.284497207e-30
7.14658132e-30
7.089109621e-30
7.067021523e-30
7.058749777e-30
7.055253329e-30
7.053226501e-30
7.051646663e-30
7.05027935e-30
7.049106254e-30
7.048137072e-30
7.047363821e-30
7.046761721e-30
7.046300592e-30
7.045954047e-30
7.04570335e-30
7.045536734e-30
7.04544629e-30
7.045424481e-30
7.045461725e-30
7.045545557e-30
7.045661228e-30
7.045793163e-30
7.04592666e-30
7.04604928e-30
7.046151674e-30
7.046227786e-30
7.046274566e-30
7.046291408e-30
7.046279511e-30
7.046241306e-30
7.046180001e-30
7.046099264e-30
7.046003018e-30
7.045895289e-30
7.045780065e-30
7.045661131e-30
7.045541898e-30
7.045425229e-30
7.045313313e-30
7.045207589e-30
7.045108765e-30
7.045016885e-30
7.044931482e-30
7.044851743e-30
7.044776699e-30
7.044705399e-30
7.044637044e-30
7.044571097e-30
7.044507341e-30
7.044445893e-30
7.044387202e-30
7.044332003e-30
7.044281262e-30
7.044236118e-30
7.044197808e-30
7.044167607e-30
7.044146762e-30
7.044136425e-30
7.044137602e-30
7.044151089e-30
7.04417742e-30
7.044216837e-30
7.044269243e-30
7.044334197e-30
7.044410894e-30
7.044498182e-30
7.044594585e-30
7.044698339e-30
7.044807444e-30
7.044919726e-30
7.045032898e-30
7.045144632e-30
7.045252629e-30
7.045354681e-30
7.045448736e-30
7.045532944e-30
7.045605709e-30
7.045665712e-30
7.045711948e-30
7.045743732e-30
7.045760698e-30
7.045762805e-30
7.045750318e-30
7.045723795e-30
7.045684066e-30
7.045632204e-30
7.045569493e-30
7.045497395e-30
7.045417508e-30
7.045331525e-30
7.045241184e-30
7.045148227e-30
7.045054347e-30
7.044961144e-30
7.044870085e-30
7.044782453e-30
7.044699321e-30
7.044621523e-30
7.044549634e-30
7.044483966e-30
7.044424569e-30
7.04437125e-30
7.044323596e-30
7.044281012e-30
7.044242764e-30
7.044208028e-30
7.044175943e-30
7.044145658e-30
7.044116381e-30
7.044087417e-30
7.044058207e-30
7.044028343e-30
7.043997581e-30
7.043965846e-30
7.043933219e-30
7.043899916e-30
7.043866272e-30
7.043832701e-30
7.043799676e-30
7.04376769e-30
7.043737236e-30
7.043708781e-30
7.04368275e-30
7.043659516e-30
7.043639401e-30
7.043622673e-30
7.043609557e-30
7.043600247e-30
7.043594918e-30
7.043593737e-30
7.043596878e-30
7.043604528e-30
7.043616893e-30
7.043634191e-30
7.043656656e-30
7.043684519e-30
7.043717997e-30
7.043757278e-30
7.043802494e-30
7.043853711e-30
7.043910906e-30
7.043973952e-30
7.044042612e-30
7.044116526e-30
7.044195217e-30
7.044278092e-30
7.044364457e-30
7.04445353e-30
7.044544458e-30
7.044636348e-30
7.044728281e-30
7.044819342e-30
7.044908638e-30
7.044995321e-30
7.045078597e-30
7.045157744e-30
7.045232114e-30
7.045301129e-30
7.045364287e-30
7.04542115e-30
7.045471334e-30
7.045514504e-30
7.045550364e-30
7.045578646e-30
7.045599112e-30
7.045611553e-30
7.045615787e-30
7.045611676e-30
7.045599132e-30
7.045578137e-30
7.045548759e-30
7.045511175e-30
7.045465695e-30
7.045412784e-30
7.045353085e-30
7.045287444e-30
7.04521692e-30
7.045142802e-30
7.0450666e-30
7.044990042e-30
7.044915032e-30
7.044843614e-30
7.044777898e-30
7.044719984e-30
7.044671866e-30
7.044635333e-30
7.04461188e-30
7.044602631e-30
7.04460828e-30
7.044629084e-30
7.044664879e-30
7.044715146e-30
7.044779108e-30
7.044855845e-30
7.044944417e-30
7.045043957e-30
7.045153726e-30
7.045273105e-30
7.045401501e-30
7.045538191e-30
7.045682087e-30
7.045831483e-30
7.045983805e-30
7.046135438e-30
7.046281674e-30
7.046416854e-30
7.046534727e-30
7.046629054e-30
7.04669444e-30
7.046727313e-30
7.046726988e-30
7.046696646e-30
7.04664409e-30
7.046582094e-30
7.046528213e-30
7.046503906e-30
7.046532955e-30
7.046639174e-30
7.046843565e-30
7.047161127e-30
7.047597669e-30
7.04814699e-30
7.048788898e-30
7.049488482e-30
7.050197017e-30
7.050854766e-30
7.051395759e-30
7.051754446e-30
7.051873818e-30
7.051714415e-30
7.05126336e-30
7.050542386e-30
7.049613792e-30
7.048583275e-30
7.047598807e-30
7.046845298e-30
7.046535375e-30
7.04689793e-30
7.048165718e-30
7.050560956e-30
7.054258681e-30
7.059258841e-30
7.064942253e-30
7.066987903e-30
7.067495232e-30
7.068020327e-30
7.068557266e-30
7.069104357e-30
7.069661163e-30
7.070227639e-30
7.070803884e-30
7.071390062e-30
7.071986368e-30
7.072593014e-30
7.073210224e-30
7.073838228e-30
7.074477269e-30
7.075127603e-30
7.075789496e-30
7.076463232e-30
7.077149112e-30
7.077847455e-30
7.078558599e-30
7.079282904e-30
7.080020752e-30
7.08077255e-30
7.081538728e-30
7.082319745e-30
7.083116088e-30
7.083928276e-30
7.084756859e-30
7.085602423e-30
7.086465589e-30
7.08734702e-30
7.088247419e-30
7.089167535e-30
7.090108162e-30
7.091070147e-30
7.092054389e-30
7.093061844e-30
7.09409353e-30
7.095150527e-30
7.096233984e-30
7.097345122e-30
7.09848524e-30
7.099655718e-30
7.100858022e-30
7.102093711e-30
7.103364438e-30
7.104671964e-30
7.106018156e-30
7.107404998e-30
7.108834597e-30
7.110309189e-30
7.111831149e-30
7.113402996e-30
7.115027405e-30
7.116707214e-30
7.118445433e-30
7.120245253e-30
7.122110061e-30
7.124043447e-30
7.126049213e-30
7.128131394e-30
7.13029426e-30
7.132542339e-30
7.134880422e-30
7.137313584e-30
7.139847199e-30
7.142486952e-30
7.145238859e-30
7.148109284e-30
7.151104958e-30
7.154232995e-30
7.157500917e-30
7.160916673e-30
7.164488658e-30
7.168225741e-30
7.172137285e-30
7.176233173e-30
7.180523835e-30
7.18502027e-30
7.189734085e-30
7.19467751e-30
7.199863439e-30
7.205305457e-30
7.211017872e-30
7.217015752e-30
7.223314956e-30
7.229932174e-30
7.23688496e-30
7.244191775e-30
7.251872027e-30
7.259946109e-30
7.268435441e-30
7.277362522e-30
7.286750964e-30
7.296625548e-30
7.307012266e-30
7.317938371e-30
7.329432432e-30
7.341524379e-30
7.35424556e-30
7.367628795e-30
7.381708429e-30
7.396520391e-30
7.412102252e-30
7.42849328e-30
7.445734503e-30
7.463868768e-30
7.482940803e-30
7.502997281e-30
7.524086879e-30
7.546260345e-30
7.569570561e-30
7.594072608e-30
7.619823829e-30
7.646883897e-30
7.675314881e-30
7.705181305e-30
7.736550218e-30
7.769491259e-30
7.804076718e-30
7.840381601e-30
7.878483694e-30
7.918463619e-30
7.960404899e-30
8.004394016e-30
8.050520465e-30
8.098876812e-30
8.149558745e-30
8.202665127e-30
8.258298038e-30
8.31656283e-30
8.377568157e-30
8.441426021e-30
8.508251808e-30
8.578164311e-30
8.651285767e-30
8.727741872e-30
8.807661801e-30
8.89117822e-30
8.978427296e-30
9.069548697e-30
9.164685589e-30
9.263984627e-30
9.367595937e-30
9.475673095e-30
9.588373099e-30
9.705856333e-30
9.82828652e-30
9.955830679e-30
1.008865906e-29
1.022694509e-29
1.037086528e-29
1.052059916e-29
1.06763292e-29
1.083824068e-29
1.100652161e-29
1.118136263e-29
1.136295685e-29
1.155149975e-29
1.174718903e-29
1.195022449e-29
1.216080784e-29
1.237914255e-29
1.260543372e-29
1.283988787e-29
1.308271274e-29
1.333411717e-29
1.359431083e-29
1.386350409e-29
1.414190775e-29
1.442973289e-29
1.472719061e-29
1.503449186e-29
1.535184717e-29
1.567946645e-29
1.601755878e-29
1.636633218e-29
1.672599335e-29
1.709674748e-29
1.747879804e-29
1.78723465e-29
1.827759217e-29
1.869473196e-29
1.912396017e-29
1.956546828e-29
2.001944478e-29
2.048607494e-29
2.09655407e-29
2.145802038e-29
2.196368866e-29
2.248271634e-29
2.301527023e-29
2.356151304e-29
2.412160328e-29
2.469569515e-29
2.52839385e-29
2.588647875e-29
2.650345689e-29
2.713500945e-29
2.778126851e-29
2.844236177e-29
2.911841257e-29
2.980954001e-29
3.051585903e-29
3.12374806e-29
3.197451183e-29
3.272705624e-29
3.349521393e-29
3.427908187e-29
3.507875422e-29
3.589432263e-29
3.672587659e-29
3.757350389e-29
3.843729103e-29
3.931732368e-29
4.02136872e-29
4.112646726e-29
4.205575033e-29
4.30016244e-29
4.396417966e-29
4.494350917e-29
4.593970968e-29
4.695288242e-29
4.7983134e-29
4.903057724e-29
5.009533225e-29
5.11775273e-29
5.227729996e-29
5.339479819e-29
5.453018148e-29
5.568362209e-29
5.685530631e-29
5.804543576e-29
5.925422881e-29
6.048192193e-29
6.172877129e-29
6.299505421e-29
6.428107089e-29
6.558714598e-29
6.691363035e-29
6.82609029e-29
6.962937243e-29
7.10194796e-29
7.243169889e-29
7.386654072e-29
7.532455355e-29
7.68063262e-29
7.831248998e-29
7.98437213e-29
8.140074398e-29
8.298433176e-29
8.459531103e-29
8.623456354e-29
8.790302915e-29
8.960170876e-29
9.133166729e-29
9.309403679e-29
9.489001946e-29
9.672089051e-29
9.858799992e-29
1.004927707e-28
1.024366894e-28
1.044212903e-28
1.064481898e-28
1.085192252e-28
1.106362674e-28
1.128012711e-28
1.15016585e-28
1.172845313e-28
1.196074868e-28
1.219879343e-28
1.244284801e-28
1.269318629e-28
1.295009598e-28
1.321387907e-28
1.348485183e-28
1.376334322e-28
1.404968664e-28
1.434421151e-28
1.464732161e-28
1.495942259e-28
1.52809251e-28
1.561225179e-28
1.595385814e-28
1.630623355e-28
1.666988846e-28
1.704535262e-28
1.743317801e-28
1.783394136e-28
1.824824604e-28
1.867672358e-28
1.912003529e-28
1.957887383e-28
2.005396504e-28
2.054606997e-28
2.1055987e-28
2.158455439e-28
2.213265306e-28
2.270120973e-28
2.329120055e-28
2.390365525e-28
2.45396618e-28
2.520037208e-28
2.588700809e-28
2.66008694e-28
2.734334186e-28
2.811590787e-28
2.892015823e-28
2.975780623e-28
3.063070466e-28
3.154086533e-28
3.249048281e-28
3.348196252e-28
3.45179542e-28
3.560139136e-28
3.673554012e-28
3.792405534e-28
3.917104973e-28
4.048117594e-28
4.185972591e-28
4.331274862e-28
4.4847193e-28
4.647108037e-28
4.819371103e-28
5.002591304e-28
5.198034305e-28
5.407184762e-28
5.631790197e-28
5.873913473e-28
6.13599654e-28
6.420937356e-28
6.732182524e-28
7.073839721e-28
7.450813038e-28
7.868966859e-28
8.335324017e-28
8.858305632e-28
9.448020741e-28
1.011661735e-27
1.087870672e-27
1.175187755e-27
1.275731811e-27
1.392056993e-27
1.527244072e-27
1.685010997e-27
1.869846995e-27
2.087174958e-27
2.343548507e-27
2.646890775e-27
3.006784169e-27
3.434822175e-27
3.945035969e-27
4.554412571e-27
5.283524432e-27
6.15729363e-27
7.205921788e-27
8.466019665e-27
9.981982923e-27
1.180766445e-26
1.400841267e-26
1.666355498e-26
1.98694252e-26
2.374305774e-26
2.842669744e-26
3.409331354e-26
4.095334378e-26
4.926295829e-26
5.933416093e-26
7.154723613e-26
8.63660104e-26
1.043566401e-25
1.262107788e-25
1.527741969e-25
1.850821856e-25
2.244034501e-25
2.722946701e-25
3.306685193e-25
4.018785003e-25
4.888256048e-25
5.950919224e-25
7.251096072e-25
8.84374814e-25
1.079719356e-24
1.319658335e-24
1.614835646e-24
1.978598694e-24
2.427744031e-24
2.983488547e-24
3.672745372e-24
4.529806268e-24
5.598580092e-24
6.935591141e-24
8.614020429e-24
1.072920075e-23
1.340615958e-23
1.681005571e-23
2.116072977e-23
2.675325602e-23
3.398719108e-23
4.340872442e-23
5.577201478e-23
7.212965972e-23
9.396767727e-23
1.234096633e-22
1.635298717e-22
2.188404198e-22
2.960612468e-22
4.0535686e-22
5.623572033e-22
7.915200784e-22
1.131834005e-21
1.646690404e-21
2.441355129e-21
3.694653542e-21
5.718057859e-21
9.069590163e-21
1.478254692e-20
2.484878422e-20
4.330512489e-20
7.885378673e-20
1.516566729e-19
3.121457737e-19
6.959025757e-19
1.689813088e-18
4.446893306e-18
1.250093167e-17
3.685093449e-17
1.119414203e-16
3.455657599e-16
1.073128949e-15
3.328149289e-15
1.025393499e-14
3.1258748e-14
9.398391107e-14
2.779597135e-13
8.068249391e-13
2.29410864e-12
6.379425305e-12
1.732583488e-11
4.590624842e-11
1.185584826e-10
2.982501147e-10
7.304519455e-10
1.741004193e-09
4.03723181e-09
9.106518588e-09
1.997708735e-08
4.261043336e-08
8.837505755e-08
1.780859224e-07
3.489961783e-07
6.643954431e-07
1.227861078e-06
2.190138254e-06
3.780154665e-06
6.300118641e-06
1.011356146e-05
1.559164155e-05
2.300898375e-05
3.23875945e-05
4.345757725e-05
5.57155667e-05
6.862373817e-05
8.178755038e-05
9.515302845e-05
0.0001083728319
0.0001215707469
0.0001346555723
0.0001475150738
0.0001596193456
0.000170700511
0.0001804986204
0.0001892780128
0.00019651514
0.0002018199852
0.0002048086881
0.0002052095225
0.0002029109249
0.0001979555846
0.0001904964036
0.0001808630438
0.0001693492302
0.0001564853262
0.0001427539664
0.0001286814397
0.0001147527242
0.0001013598012
8.870093428e-05
7.699601712e-05
6.64155931e-05
5.698754977e-05
4.868793966e-05
4.145192488e-05
3.518943419e-05
2.980482468e-05
2.519902163e-05
2.126836733e-05
1.79686023e-05
1.516876345e-05
1.277852925e-05
1.076267552e-05
9.064506115e-06
7.634852756e-06
6.431681908e-06
5.419318048e-06
4.568233045e-06
3.851738571e-06
3.248976154e-06
2.741842559e-06
2.315091599e-06
1.95589298e-06
1.653457177e-06
1.3987165e-06
1.184054227e-06
1.003074934e-06
8.504101207e-07
7.215540078e-07
6.127250823e-07
5.207495189e-07
4.429631605e-07
3.771291965e-07
3.213690708e-07
2.741045634e-07
2.340092392e-07
1.999677741e-07
1.710418909e-07
1.464418312e-07
1.255024676e-07
1.076632968e-07
9.24516841e-08
7.9468825e-08
6.837798252e-08
5.889462666e-08
5.077816589e-08
4.382501059e-08
3.786275123e-08
3.274526976e-08
2.834863236e-08
2.456763693e-08
2.131290908e-08
1.850845805e-08
1.608961855e-08
1.400131625e-08
1.219660524e-08
1.063543383e-08
9.283602442e-09
8.111882952e-09
7.095273997e-09
6.212370773e-09
5.444831326e-09
4.776924203e-09
4.195144788e-09
3.68788962e-09
3.245179728e-09
2.858425413e-09
2.520226106e-09
2.22419994e-09
1.964838501e-09
1.737382945e-09
1.537718238e-09
1.362282811e-09
1.2079913e-09
1.07216844e-09
9.52492438e-10
8.469464407e-10
7.537768898e-10
6.714577702e-10
5.986598839e-10
5.34224423e-10
4.771402205e-10
4.265241517e-10
3.816042333e-10
3.417050387e-10
3.062351003e-10
2.746760183e-10
2.465730383e-10
2.215268918e-10
1.991867238e-10
1.792439589e-10
1.614269758e-10
1.454964798e-10
1.312414793e-10
1.184757834e-10
1.07034951e-10
9.677363205e-11
8.756324622e-11
7.928995709e-11
7.185290111e-11
6.516263859e-11
5.913979782e-11
5.371388713e-11
4.882225334e-11
4.440916783e-11
4.042502387e-11
3.682563122e-11
3.357159567e-11
3.062777288e-11
2.796278724e-11
2.554860768e-11
2.336017341e-11
2.137506355e-11
1.957320508e-11
1.793661467e-11
1.644917024e-11
1.509640861e-11
1.386534618e-11
1.274431995e-11
1.172284639e-11
1.079149609e-11
9.941782414e-12
9.166062429e-12
8.457448757e-12
7.809731072e-12
7.217306146e-12
6.675115461e-12
6.178589549e-12
5.723598284e-12
5.306406477e-12
4.923634166e-12
4.572221099e-12
4.249394937e-12
3.952642769e-12
3.679685584e-12
3.428455377e-12
3.197074605e-12
2.983837736e-12
2.787194674e-12
2.605735862e-12
2.438178879e-12
2.283356373e-12
2.140205202e-12
2.007756648e-12
1.885127589e-12
1.771512539e-12
1.666176471e-12
1.568448327e-12
1.477715152e-12
1.393416806e-12
1.315041165e-12
1.242119786e-12
1.174223986e-12
1.110961281e-12
1.051972166e-12
9.969271948e-13
9.455243242e-13
8.974865135e-13
8.525595374e-13
8.105100024e-13
7.711235425e-13
7.342031809e-13
6.995678352e-13
6.670509624e-13
6.364993212e-13
6.077718468e-13
5.807386238e-13
5.552799506e-13
5.312854869e-13
5.086534744e-13
4.872900265e-13
4.671084794e-13
4.480287985e-13
4.299770374e-13
4.128848423e-13
3.966889981e-13
3.813310152e-13
3.667567495e-13
3.529160544e-13
3.397624632e-13
3.272528978e-13
3.153474006e-13
3.040088897e-13
2.932029342e-13
2.828975478e-13
2.730629995e-13
2.636716395e-13
2.546977404e-13
2.46117349e-13
2.379081524e-13
2.300493535e-13
2.225215572e-13
2.153066649e-13
2.083877787e-13
2.017491116e-13
1.953759063e-13
1.892543589e-13
1.8337155e-13
1.777153805e-13
1.722745122e-13
1.670383133e-13
1.619968081e-13
1.571406303e-13
1.524609801e-13
1.479495852e-13
1.435986631e-13
1.394008881e-13
1.353493591e-13
1.314375712e-13
1.276593892e-13
1.240090223e-13
1.204810005e-13
1.170701546e-13
1.137715956e-13
1.10580697e-13
1.074930768e-13
1.045045829e-13
1.016112777e-13
9.880942525e-14
9.609547788e-14
9.346606496e-14
9.091798184e-14
8.844817961e-14
8.605375617e-14
8.373194722e-14
8.148011793e-14
7.929575549e-14
7.717646185e-14
7.511994703e-14
7.312402362e-14
7.118660016e-14
6.93056765e-14
6.747933825e-14
6.570575246e-14
6.398316297e-14
6.23098863e-14
6.068430806e-14
5.910487917e-14
5.757011251e-14
5.607857975e-14
5.462890844e-14
5.32197793e-14
5.184992323e-14
5.051811947e-14
4.922319269e-14
4.796401132e-14
4.673948506e-14
4.554856335e-14
4.439023304e-14
4.32635174e-14
4.216747391e-14
4.110119294e-14
4.006379638e-14
3.905443615e-14
3.807229296e-14
3.71165753e-14
3.618651795e-14
3.528138112e-14
3.440044916e-14
3.354303004e-14
3.270845402e-14
3.189607286e-14
3.110525895e-14
3.033540456e-14
2.958592117e-14
2.885623854e-14
2.814580425e-14
2.745408289e-14
2.678055573e-14
2.612471952e-14
2.548608638e-14
2.486418327e-14
2.425855122e-14
2.366874511e-14
2.30943328e-14
2.253489502e-14
2.199002508e-14
2.145932802e-14
2.094242039e-14
2.043892988e-14
1.994849494e-14
1.947076453e-14
1.900539773e-14
1.855206318e-14
1.8110439e-14
1.768021253e-14
1.726107998e-14
1.685274606e-14
1.645492386e-14
1.606733438e-14
1.568970652e-14
1.532177669e-14
1.49632887e-14
1.461399336e-14
1.42736484e-14
1.394201819e-14
1.36188737e-14
1.330399221e-14
1.2997157e-14
1.269815729e-14
1.240678792e-14
1.212284951e-14
1.184614806e-14
1.157649481e-14
1.131370605e-14
1.105760313e-14
1.080801209e-14
1.056476367e-14
1.032769331e-14
1.009664072e-14
9.871449891e-15
9.651969026e-15
9.438050411e-15
9.229550242e-15
9.026328469e-15
8.828248896e-15
8.635178853e-15
8.446989281e-15
8.263554399e-15
8.084751839e-15
7.910462466e-15
7.740570275e-15
7.574962355e-15
7.413528658e-15
7.256162172e-15
7.102758572e-15
6.953216341e-15
6.807436595e-15
6.665323031e-15
6.526781909e-15
6.391721892e-15
6.260054076e-15
6.13169186e-15
6.006550893e-15
5.884548978e-15
5.765606136e-15
5.64964439e-15
5.536587836e-15
5.426362568e-15
5.318896554e-15
5.214119628e-15
5.111963472e-15
5.012361477e-15
4.915248817e-15
4.820562309e-15
4.728240459e-15
4.638223227e-15
4.550452257e-15
4.46487059e-15
4.381422853e-15
4.300054999e-15
4.22071448e-15
4.143350009e-15
4.06791164e-15
3.994350689e-15
3.922619715e-15
3.852672573e-15
3.784464181e-15
3.717950713e-15
3.653089485e-15
3.58983879e-15
3.528158106e-15
3.468007842e-15
3.409349488e-15
3.35214548e-15
3.296359282e-15
3.241955231e-15
3.188898529e-15
3.137155332e-15
3.086692688e-15
3.037478397e-15
2.989481135e-15
2.942670386e-15
2.897016402e-15
2.852490116e-15
2.809063302e-15
2.76670838e-15
2.725398534e-15
2.685107612e-15
2.645810096e-15
2.607481111e-15
2.570096459e-15
2.533632505e-15
2.498066251e-15
2.463375226e-15
2.429537629e-15
2.396532115e-15
2.364337911e-15
2.332934777e-15
2.302302989e-15
2.272423301e-15
2.243277002e-15
2.214845737e-15
2.187111736e-15
2.160057622e-15
2.133666489e-15
2.107921827e-15
2.082807552e-15
2.058307953e-15
2.034407771e-15
2.011092135e-15
1.988346514e-15
1.966156699e-15
1.944508923e-15
1.923389726e-15
1.902785989e-15
1.882684939e-15
1.863074121e-15
1.843941379e-15
1.825274867e-15
1.807063007e-15
1.789294548e-15
1.771958536e-15
1.755044273e-15
1.738541264e-15
1.722439417e-15
1.706728758e-15
1.691399642e-15
1.676442637e-15
1.661848548e-15
1.647608432e-15
1.633713555e-15
1.620155381e-15
1.606925618e-15
1.594016166e-15
1.581419117e-15
1.569126805e-15
1.557131753e-15
1.545426614e-15
1.534004253e-15
1.522857729e-15
1.51198026e-15
1.501365235e-15
1.491006178e-15
1.480896852e-15
1.471031096e-15
1.461402937e-15
1.452006568e-15
1.442836304e-15
1.433886606e-15
1.425152056e-15
1.416627373e-15
1.408307434e-15
1.400187235e-15
1.392261901e-15
1.384526685e-15
1.376976953e-15
1.369608152e-15
1.362415845e-15
1.355395754e-15
1.34854366e-15
1.341855479e-15
1.335327223e-15
1.328954994e-15
1.322735015e-15
1.316663568e-15
1.310737033e-15
1.304951874e-15
1.299304674e-15
1.293792084e-15
1.288410832e-15
1.283157725e-15
1.278029665e-15
1.273023602e-15
1.268136597e-15
1.263365745e-15
1.258708237e-15
1.254161307e-15
1.249722278e-15
1.245388522e-15
1.241157484e-15
1.237026657e-15
1.232993641e-15
1.229056049e-15
1.225211551e-15
1.221457886e-15
1.217792837e-15
1.214214224e-15
1.210719958e-15
1.207307973e-15
1.203976239e-15
1.200722787e-15
1.197545685e-15
1.194443045e-15
1.191413007e-15
1.18845377e-15
1.185563566e-15
1.182740665e-15
1.179983384e-15
1.177290043e-15
1.174659021e-15
1.172088713e-15
1.16957756e-15
1.167124049e-15
1.164726656e-15
1.16238391e-15
1.160094385e-15
1.157856654e-15
1.155669323e-15
1.153531026e-15
1.151440433e-15
1.149396238e-15
1.147397136e-15
1.145441874e-15
1.143529217e-15
1.14165796e-15
1.139826924e-15
1.138034929e-15
1.13628085e-15
1.134563606e-15
1.132882134e-15
1.13123546e-15
1.118110302e-15
1.103978475e-15
1.094467079e-15
1.08834775e-15
1.084820005e-15
1.083341828e-15
1.083539682e-15
1.085154958e-15
1.088010368e-15
1.091986797e-15
1.097007233e-15
1.103025253e-15
1.110017025e-15
1.117975321e-15
1.126905546e-15
1.136822448e-15
1.14774829e-15
1.159711399e-15
1.172744709e-15
1.186885386e-15
1.202173914e-15
1.218653842e-15
1.236371503e-15
1.255375493e-15
1.27571643e-15
1.297446746e-15
1.320620256e-15
1.345291807e-15
1.371516832e-15
1.399350854e-15
1.428848904e-15
1.460064864e-15
1.493050707e-15
1.527855651e-15
1.564525236e-15
1.603100259e-15
1.643615699e-15
1.686099481e-15
1.730571212e-15
1.777040858e-15
1.825507399e-15
1.875957441e-15
1.9283639e-15
1.982684718e-15
2.038861669e-15
2.096819345e-15
2.156464284e-15
2.217684405e-15
2.280348603e-15
2.344306819e-15
2.409390361e-15
2.475412626e-15
2.542170329e-15
2.609445041e-15
2.677005186e-15
2.744608477e-15
2.812004648e-15
2.87893854e-15
2.945153442e-15
3.010394555e-15
3.074412635e-15
3.136967482e-15
3.197831484e-15
3.256792836e-15
3.313658538e-15
3.368256971e-15
3.420440069e-15
3.470084946e-15
3.517095038e-15
3.56140065e-15
3.602958962e-15
3.641753511e-15
3.67779315e-15
3.711110585e-15
3.741760508e-15
3.769817412e-15
3.795373179e-15
3.818534497e-15
3.839420185e-15
3.85815852e-15
3.874884608e-15
3.889737868e-15
3.902859683e-15
3.914391255e-15
3.924471684e-15
3.933236317e-15
3.940815341e-15
3.947332647e-15
3.952904959e-15
3.957641205e-15
3.961642113e-15
3.965000025e-15
3.967798888e-15
3.970114398e-15
3.972014291e-15
3.973558728e-15
3.974800759e-15
3.975786855e-15
3.976557461e-15
3.977147575e-15
3.977587319e-15
3.977902499e-15
3.978115138e-15
3.978243965e-15
3.978304877e-15
3.978311342e-15
3.978274759e-15
3.978204776e-15
3.978109553e-15
3.977995987e-15
3.977869902e-15
3.977736196e-15
3.977598962e-15
3.977461593e-15
3.977326851e-15
3.977196937e-15
3.97707354e-15
3.976957887e-15
3.976850782e-15
3.97675265e-15
3.976663575e-15
3.976583348e-15
3.976511505e-15
3.97644738e-15
3.976390147e-15
3.976338869e-15
3.976292544e-15
3.976250149e-15
3.976210683e-15
3.976173198e-15
3.976136835e-15
3.976100844e-15
3.976064603e-15
3.97602763e-15
3.975989586e-15
3.975950272e-15
3.975909621e-15
3.975867685e-15
3.975824621e-15
3.975780668e-15
3.975736127e-15
3.975691342e-15
3.975646678e-15
3.975602499e-15
3.975559154e-15
3.975516963e-15
3.975476203e-15
3.975437102e-15
3.975399835e-15
3.975364519e-15
3.97533122e-15
3.97529995e-15
3.975270678e-15
3.975243334e-15
3.975217818e-15
3.975194005e-15
3.975171759e-15
3.975150934e-15
3.975131383e-15
3.975112967e-15
3.975095554e-15
3.975079024e-15
3.975063273e-15
3.975048214e-15
3.975033774e-15
3.975019896e-15
3.97500654e-15
3.974993677e-15
3.97498129e-15
3.974969375e-15
3.974957932e-15
3.974946973e-15
3.974936514e-15
3.974926575e-15
3.974917181e-15
3.974908361e-15
3.974900145e-15
3.974892565e-15
3.974885655e-15
3.974879449e-15
3.974873978e-15
3.974869275e-15
3.974865368e-15
3.974862282e-15
3.974860038e-15
3.974858649e-15
3.974858123e-15
3.97485846e-15
3.974859649e-15
3.974861674e-15
3.974864504e-15
3.974868104e-15
3.974872424e-15
3.974877409e-15
3.974882993e-15
3.974889104e-15
3.974895661e-15
3.974902579e-15
3.974909771e-15
3.974917143e-15
3.974924603e-15
3.974932059e-15
3.974939419e-15
3.974946594e-15
3.974953502e-15
3.974960064e-15
3.974966208e-15
3.974971868e-15
3.974976988e-15
3.97498152e-15
3.974985424e-15
3.974988669e-15
3.974991233e-15
3.974993103e-15
3.974994275e-15
3.974994753e-15
3.974994547e-15
3.974993676e-15
3.974992164e-15
3.974990041e-15
3.974987342e-15
3.974984106e-15
3.974980373e-15
3.974976188e-15
3.974971597e-15
3.974966647e-15
3.974961385e-15
3.974955857e-15
3.974950109e-15
3.974944188e-15
3.974938136e-15
3.974931994e-15
3.974925802e-15
3.974919598e-15
3.974913416e-15
3.974907287e-15
3.97490124e-15
3.974895301e-15
3.974889492e-15
3.974883835e-15
3.974878345e-15
3.974873036e-15
3.974867921e-15
3.974863007e-15
3.974858301e-15
3.974853813e-15
3.974849558e-15
3.974845576e-15
3.974841986e-15
3.974839154e-15
)
;

boundaryField
{
    inlet
    {
        type            fixedValue;
        value           uniform 0;
    }
    outlet
    {
        type            zeroGradient;
    }
    wall
    {
        type            empty;
    }
}


// ************************************************************************* //
