/*--------------------------------*- C++ -*----------------------------------*\
  =========                 |
  \\      /  F ield         | OpenFOAM: The Open Source CFD Toolbox
   \\    /   O peration     | Website:  https://openfoam.org
    \\  /    A nd           | Version:  7
     \\/     M anipulation  |
\*---------------------------------------------------------------------------*/
FoamFile
{
    version     2.0;
    format      ascii;
    class       volScalarField;
    location    "0.000558243009";
    object      CH3_0;
}
// * * * * * * * * * * * * * * * * * * * * * * * * * * * * * * * * * * * * * //

dimensions      [0 0 0 0 0 0 0];

internalField   nonuniform List<scalar> 
1500
(
1.383395043e-29
1.244945058e-29
1.070602493e-29
9.192132468e-30
8.171217242e-30
7.584033732e-30
7.284215012e-30
7.146442771e-30
7.089053425e-30
7.067011977e-30
7.058769029e-30
7.055293151e-30
7.053283009e-30
7.051717473e-30
7.050362412e-30
7.049199424e-30
7.048238017e-30
7.047470054e-30
7.046870671e-30
7.046409689e-30
7.046060792e-30
7.045805381e-30
7.045631881e-30
7.045532612e-30
7.045500297e-30
7.045525636e-30
7.04559646e-30
7.045698318e-30
7.045815934e-30
7.045934897e-30
7.046043047e-30
7.046131302e-30
7.046193853e-30
7.046227879e-30
7.046232982e-30
7.046210551e-30
7.046163188e-30
7.04609425e-30
7.046007535e-30
7.04590707e-30
7.045796963e-30
7.04568125e-30
7.045563737e-30
7.045447821e-30
7.045336314e-30
7.045231316e-30
7.045134147e-30
7.045045352e-30
7.044964792e-30
7.044891783e-30
7.044825278e-30
7.044764061e-30
7.044706922e-30
7.044652806e-30
7.044600924e-30
7.044550814e-30
7.044502371e-30
7.044455834e-30
7.044411756e-30
7.044370947e-30
7.044334412e-30
7.044303291e-30
7.044278784e-30
7.044262095e-30
7.044254364e-30
7.044256604e-30
7.044269651e-30
7.044294102e-30
7.044330278e-30
7.044378187e-30
7.044437497e-30
7.044507532e-30
7.044587271e-30
7.044675374e-30
7.044770211e-30
7.044869914e-30
7.044972432e-30
7.045075591e-30
7.045177169e-30
7.04527496e-30
7.045366837e-30
7.04545082e-30
7.045525122e-30
7.045588198e-30
7.045638783e-30
7.045675917e-30
7.045698957e-30
7.045707583e-30
7.045701798e-30
7.045681915e-30
7.045648544e-30
7.045602564e-30
7.045545102e-30
7.045477497e-30
7.045401265e-30
7.045318054e-30
7.045229604e-30
7.045137696e-30
7.045044103e-30
7.044950546e-30
7.04485864e-30
7.044769853e-30
7.044685461e-30
7.04460652e-30
7.044533828e-30
7.04446792e-30
7.044409052e-30
7.044357212e-30
7.044312136e-30
7.044273333e-30
7.044240126e-30
7.044211694e-30
7.044187128e-30
7.044165472e-30
7.044145789e-30
7.044127197e-30
7.044108913e-30
7.044090293e-30
7.044070842e-30
7.044050238e-30
7.044028325e-30
7.044005108e-30
7.043980733e-30
7.043955463e-30
7.043929654e-30
7.043903719e-30
7.043878103e-30
7.043853254e-30
7.043829607e-30
7.043807559e-30
7.043787469e-30
7.043769648e-30
7.043754365e-30
7.043741858e-30
7.043732335e-30
7.043725997e-30
7.043723046e-30
7.043723692e-30
7.043728167e-30
7.043736723e-30
7.043749633e-30
7.043767188e-30
7.043789678e-30
7.043817385e-30
7.043850561e-30
7.043889408e-30
7.043934063e-30
7.043984573e-30
7.044040886e-30
7.044102834e-30
7.044170127e-30
7.044242353e-30
7.04431898e-30
7.044399363e-30
7.044482764e-30
7.044568362e-30
7.044655281e-30
7.044742606e-30
7.044829415e-30
7.044914791e-30
7.044997847e-30
7.045077743e-30
7.045153697e-30
7.045224994e-30
7.045290988e-30
7.045351106e-30
7.045404843e-30
7.045451755e-30
7.045491457e-30
7.045523613e-30
7.045547936e-30
7.045564179e-30
7.045572141e-30
7.045571667e-30
7.045562656e-30
7.045545072e-30
7.045518955e-30
7.045484434e-30
7.045441752e-30
7.045391279e-30
7.045333533e-30
7.045269207e-30
7.045199181e-30
7.045124539e-30
7.045046584e-30
7.044966832e-30
7.044887006e-30
7.044809005e-30
7.044734864e-30
7.044666685e-30
7.044606566e-30
7.044556503e-30
7.044518299e-30
7.044493468e-30
7.044483161e-30
7.044488109e-30
7.044508607e-30
7.044544535e-30
7.044595417e-30
7.044660513e-30
7.044738939e-30
7.04482978e-30
7.044932183e-30
7.045045409e-30
7.045168824e-30
7.045301807e-30
7.045443584e-30
7.045593003e-30
7.045748273e-30
7.045906725e-30
7.046064635e-30
7.046217184e-30
7.046358602e-30
7.046482541e-30
7.046582689e-30
7.046653606e-30
7.04669172e-30
7.04669639e-30
7.046670892e-30
7.046623163e-30
7.046566146e-30
7.046517578e-30
7.046499084e-30
7.046534565e-30
7.046647878e-30
7.046859954e-30
7.047185587e-30
7.047630225e-30
7.048187161e-30
7.048835569e-30
7.049539825e-30
7.050250482e-30
7.050907166e-30
7.051443465e-30
7.051793685e-30
7.051901092e-30
7.051727006e-30
7.051259882e-30
7.050523344e-30
7.049582083e-30
7.048544551e-30
7.047561642e-30
7.046821082e-30
7.046537885e-30
7.046942557e-30
7.048268341e-30
7.050736519e-30
7.054519494e-30
7.059612763e-30
7.065390075e-30
7.067476909e-30
7.067992191e-30
7.068523903e-30
7.069066806e-30
7.069619578e-30
7.070181921e-30
7.070753837e-30
7.071335445e-30
7.071926915e-30
7.072528446e-30
7.073140249e-30
7.073762546e-30
7.074395565e-30
7.075039547e-30
7.075694743e-30
7.076361419e-30
7.077039854e-30
7.077730347e-30
7.078433214e-30
7.079148792e-30
7.07987744e-30
7.080619535e-30
7.081375483e-30
7.082145712e-30
7.08293068e-30
7.083730872e-30
7.084546803e-30
7.085379022e-30
7.086228114e-30
7.087094699e-30
7.087979436e-30
7.08888303e-30
7.089806225e-30
7.090749816e-30
7.091714649e-30
7.092701622e-30
7.093711689e-30
7.094745869e-30
7.09580524e-30
7.096890951e-30
7.098004225e-30
7.099146358e-30
7.100318733e-30
7.101522815e-30
7.102760163e-30
7.104032435e-30
7.105341389e-30
7.106688895e-30
7.10807694e-30
7.109507632e-30
7.11098321e-30
7.112506052e-30
7.11407868e-30
7.115703774e-30
7.117384175e-30
7.119122897e-30
7.120923138e-30
7.122788289e-30
7.124721945e-30
7.126727918e-30
7.128810247e-30
7.130973212e-30
7.133221348e-30
7.135559455e-30
7.13799262e-30
7.140526225e-30
7.143165967e-30
7.145917874e-30
7.148788323e-30
7.151784059e-30
7.154912211e-30
7.158180317e-30
7.161596341e-30
7.165168697e-30
7.168906272e-30
7.17281845e-30
7.176915134e-30
7.181206775e-30
7.185704401e-30
7.190419638e-30
7.195364745e-30
7.200552644e-30
7.205996949e-30
7.211711998e-30
7.217712892e-30
7.224015525e-30
7.230636621e-30
7.237593773e-30
7.244905483e-30
7.252591196e-30
7.260671351e-30
7.269167415e-30
7.278101931e-30
7.287498564e-30
7.297382144e-30
7.307778717e-30
7.318715596e-30
7.330221406e-30
7.342326138e-30
7.355061206e-30
7.368459494e-30
7.382555417e-30
7.397384977e-30
7.412985817e-30
7.429397284e-30
7.446660485e-30
7.46481835e-30
7.483915695e-30
7.503999278e-30
7.525117871e-30
7.547322314e-30
7.570665589e-30
7.595202876e-30
7.620991623e-30
7.648091611e-30
7.676565015e-30
7.706476475e-30
7.737893156e-30
7.770884815e-30
7.805523864e-30
7.841885435e-30
7.880047439e-30
7.920090631e-30
7.962098667e-30
8.006158163e-30
8.052358753e-30
8.100793146e-30
8.151557172e-30
8.204749838e-30
8.260473375e-30
8.318833281e-30
8.379938362e-30
8.443900774e-30
8.510836053e-30
8.580863154e-30
8.654104467e-30
8.730685844e-30
8.810736618e-30
8.894389614e-30
8.981781157e-30
9.073051072e-30
9.168342681e-30
9.267802795e-30
9.371581695e-30
9.479833112e-30
9.592714193e-30
9.710385472e-30
9.833010818e-30
9.960757395e-30
1.009379559e-29
1.023229897e-29
1.037644418e-29
1.052641088e-29
1.068238165e-29
1.08445419e-29
1.101307975e-29
1.118818595e-29
1.13700537e-29
1.155887857e-29
1.175485837e-29
1.195819296e-29
1.216908412e-29
1.238773539e-29
1.261435193e-29
1.284914028e-29
1.309230825e-29
1.334406468e-29
1.360461928e-29
1.38741824e-29
1.415296486e-29
1.444117772e-29
1.473903207e-29
1.504673881e-29
1.536450843e-29
1.569255079e-29
1.603107492e-29
1.638028873e-29
1.674039887e-29
1.711161042e-29
1.749412675e-29
1.788814922e-29
1.829387701e-29
1.871150691e-29
1.914123306e-29
1.958324682e-29
2.003773651e-29
2.050488724e-29
2.098488077e-29
2.147789528e-29
2.198410524e-29
2.250368128e-29
2.303679003e-29
2.358359402e-29
2.414425156e-29
2.471891667e-29
2.530773902e-29
2.591086384e-29
2.652843195e-29
2.716057969e-29
2.780743901e-29
2.846913742e-29
2.914579813e-29
2.98375401e-29
3.054447815e-29
3.126672313e-29
3.200438208e-29
3.275755842e-29
3.352635221e-29
3.431086041e-29
3.511117714e-29
3.592739408e-29
3.675960078e-29
3.760788511e-29
3.847233366e-29
3.935303226e-29
4.025006645e-29
4.116352212e-29
4.209348602e-29
4.304004644e-29
4.400329392e-29
4.498332191e-29
4.598022766e-29
4.699411291e-29
4.80250848e-29
4.907325682e-29
5.013874973e-29
5.122169259e-29
5.23222238e-29
5.34404922e-29
5.457665829e-29
5.573089536e-29
5.690339085e-29
5.809434759e-29
5.930398525e-29
6.053254172e-29
6.178027466e-29
6.304746303e-29
6.433440867e-29
6.564143807e-29
6.6968904e-29
6.831718741e-29
6.968669929e-29
7.107788255e-29
7.249121409e-29
7.39272069e-29
7.538641211e-29
7.686942134e-29
7.8376869e-29
7.990943457e-29
8.146784516e-29
8.305287802e-29
8.466536322e-29
8.630618634e-29
8.797629126e-29
8.967668312e-29
9.140843135e-29
9.317267268e-29
9.497061471e-29
9.680353919e-29
9.867280617e-29
1.005798571e-28
1.025262086e-28
1.045134065e-28
1.065429142e-28
1.086169016e-28
1.107376046e-28
1.129072171e-28
1.151274249e-28
1.174002382e-28
1.197279141e-28
1.221128786e-28
1.245577017e-28
1.270650939e-28
1.296379102e-28
1.322791584e-28
1.349920197e-28
1.377799138e-28
1.406466697e-28
1.43596629e-28
1.466332145e-28
1.497602059e-28
1.529816364e-28
1.563015184e-28
1.597244515e-28
1.632554944e-28
1.668997581e-28
1.706625293e-28
1.745493304e-28
1.785659416e-28
1.82718415e-28
1.870130865e-28
1.914565917e-28
1.960558806e-28
2.008182366e-28
2.057512959e-28
2.108630698e-28
2.161619692e-28
2.216568333e-28
2.273569611e-28
2.332721475e-28
2.394127245e-28
2.457896094e-28
2.524143601e-28
2.592992379e-28
2.664572823e-28
2.739024001e-28
2.816494653e-28
2.897144393e-28
2.981145139e-28
3.068682784e-28
3.159959203e-28
3.25519459e-28
3.354630284e-28
3.458532144e-28
3.567194528e-28
3.680945104e-28
3.800150607e-28
3.925223662e-28
4.056631078e-28
4.194903782e-28
4.340648676e-28
4.494562946e-28
4.657451372e-28
4.830247073e-28
5.014036388e-28
5.210089109e-28
5.419894898e-28
5.645206907e-28
5.888094808e-28
6.151008587e-28
6.436855838e-28
6.749094525e-28
7.091845959e-28
7.47003028e-28
7.889531547e-28
8.357395908e-28
8.882072388e-28
9.473703799e-28
1.014447861e-27
1.090905703e-27
1.178508636e-27
1.279382607e-27
1.396090332e-27
1.531722927e-27
1.690010788e-27
1.875458261e-27
2.093506453e-27
2.350730968e-27
2.655081605e-27
3.016173114e-27
3.445637879e-27
3.957554167e-27
4.568966065e-27
5.300514914e-27
6.177206573e-27
7.229343661e-27
8.493659334e-27
1.001469689e-26
1.184648927e-26
1.405460168e-26
1.671862431e-26
1.993520924e-26
2.382177693e-26
2.852104196e-26
3.42065392e-26
4.108939365e-26
4.942660494e-26
5.953119482e-26
7.17846751e-26
8.665236492e-26
1.047022266e-25
1.266281296e-25
1.532785258e-25
1.856919704e-25
2.251411709e-25
2.731876568e-25
3.31750042e-25
4.031891504e-25
4.904148619e-25
5.97020248e-25
7.274510215e-25
8.872198425e-25
1.083179178e-24
1.323869401e-24
1.61996619e-24
1.984856516e-24
2.435385882e-24
2.992833304e-24
3.684189462e-24
4.543845558e-24
5.615835935e-24
6.956844851e-24
8.64025729e-24
1.076167504e-23
1.344647261e-23
1.686025637e-23
2.122346446e-23
2.683195847e-23
3.408635984e-23
4.353426321e-23
5.593176568e-23
7.23341018e-23
9.423093158e-23
1.237509222e-22
1.639754538e-22
2.194267475e-22
2.968391979e-22
4.06398171e-22
5.637639343e-22
7.934384553e-22
1.134473898e-21
1.650349079e-21
2.446431183e-21
3.701588417e-21
5.726980726e-21
9.078972623e-21
1.478506059e-20
2.482108188e-20
4.319296623e-20
7.8607068e-20
1.516805641e-19
3.160179338e-19
7.234947623e-19
1.833510062e-18
5.093377412e-18
1.515091298e-17
4.698377439e-17
1.485279929e-16
4.711696413e-16
1.484777241e-15
4.61909564e-15
1.413264162e-14
4.242881665e-14
1.248105978e-13
3.594199166e-13
1.01263263e-12
2.790066959e-12
7.51526032e-12
1.978396531e-11
5.08867849e-11
1.278517104e-10
3.136953263e-10
7.514488912e-10
1.756986804e-09
4.008664988e-09
8.922227245e-09
1.936701044e-08
4.097952063e-08
8.452837844e-08
1.697463321e-07
3.323399557e-07
6.333272389e-07
1.173623098e-06
2.098870389e-06
3.635751286e-06
6.086079068e-06
9.817256036e-06
1.52099591e-05
2.255358706e-05
3.188549126e-05
4.294977583e-05
5.524482137e-05
6.822124678e-05
8.146483428e-05
9.489440415e-05
0.0001081811145
0.0001214478256
0.0001346223114
0.00014759026
0.0001598485213
0.0001711012938
0.0001810648266
0.000189971472
0.0001973950925
0.0002028958677
0.0002060811077
0.0002066603992
0.0002044976369
0.0001996214505
0.0001921872206
0.0001825294223
0.0001709806009
0.0001580695859
0.0001442761836
0.0001301210223
0.0001160782554
0.0001025493164
8.978419013e-05
7.795722227e-05
6.725011079e-05
5.770074658e-05
4.928806518e-05
4.195360867e-05
3.561102922e-05
3.016411046e-05
2.550665107e-05
2.153535256e-05
1.818701554e-05
1.534677411e-05
1.293197669e-05
1.08948552e-05
9.177922128e-06
7.731755106e-06
6.514200575e-06
5.48945517e-06
4.627394756e-06
3.90193165e-06
3.291586025e-06
2.778048424e-06
2.345888589e-06
1.982117174e-06
1.675809952e-06
1.417786439e-06
1.200336002e-06
1.01698517e-06
8.623005311e-07
7.31722204e-07
6.214234472e-07
5.281925009e-07
4.493332828e-07
3.825820248e-07
3.260373501e-07
2.781016637e-07
2.374320477e-07
2.028991331e-07
1.735526577e-07
1.485926265e-07
1.27345161e-07
1.092422732e-07
9.380492412e-08
8.062882892e-08
6.937255993e-08
5.97475725e-08
5.150983922e-08
4.44528302e-08
3.840162005e-08
3.320793828e-08
2.874600987e-08
2.490905788e-08
2.160636107e-08
1.876077697e-08
1.630665545e-08
1.418808012e-08
1.235738505e-08
1.077390289e-08
9.402907599e-09
8.214720807e-09
7.183956054e-09
6.288879095e-09
5.510866087e-09
4.833944327e-09
4.244402663e-09
3.730460774e-09
3.281988183e-09
2.890265361e-09
2.547780446e-09
2.248056124e-09
1.985502096e-09
1.755289235e-09
1.553242156e-09
1.375747447e-09
1.219675189e-09
1.082311806e-09
9.613025517e-10
8.546022119e-10
7.60432812e-10
6.77247306e-10
6.036983732e-10
5.386115826e-10
4.809622938e-10
4.298557571e-10
3.845099557e-10
3.442407995e-10
3.084493372e-10
2.766107028e-10
2.482645521e-10
2.230067827e-10
2.004823584e-10
1.803790858e-10
1.624222112e-10
1.463697282e-10
1.320082957e-10
1.191496872e-10
1.076276973e-10
9.729544584e-11
8.802302564e-11
7.969544889e-11
7.221085273e-11
6.547892983e-11
5.941955489e-11
5.39615815e-11
4.904178742e-11
4.46039492e-11
4.059802974e-11
3.697946431e-11
3.370853271e-11
3.074980671e-11
2.807166334e-11
2.564585596e-11
2.344713578e-11
2.145291789e-11
1.964298609e-11
1.799923203e-11
1.650542435e-11
1.514700432e-11
1.391090477e-11
1.278538953e-11
1.175991095e-11
1.082498344e-11
9.972071075e-12
9.193487639e-12
8.482307735e-12
7.832287605e-12
7.237794597e-12
6.69374428e-12
6.195544339e-12
5.739044489e-12
5.320491733e-12
4.936490367e-12
4.583966205e-12
4.260134562e-12
3.96247158e-12
3.68868853e-12
3.436708767e-12
3.204647065e-12
2.990791044e-12
2.793584506e-12
2.611612442e-12
2.443587561e-12
2.288338155e-12
2.144797179e-12
2.011992414e-12
1.889037597e-12
1.775124423e-12
1.669515322e-12
1.57153695e-12
1.480574291e-12
1.396065344e-12
1.317496305e-12
1.244397213e-12
1.17633801e-12
1.112924968e-12
1.053797455e-12
9.986249986e-13
9.47104627e-13
8.989584545e-13
8.539314871e-13
8.117896323e-13
7.723178873e-13
7.35318694e-13
7.006104418e-13
6.680261039e-13
6.374119982e-13
6.086266561e-13
5.815397935e-13
5.560313723e-13
5.319907428e-13
5.093158651e-13
4.879125934e-13
4.676940262e-13
4.485799116e-13
4.304961035e-13
4.133740646e-13
3.971504125e-13
3.817665023e-13
3.671680476e-13
3.533047714e-13
3.401300871e-13
3.276008059e-13
3.15676868e-13
3.043210982e-13
2.934989793e-13
2.831784455e-13
2.733296921e-13
2.639250023e-13
2.549385861e-13
2.463464327e-13
2.381261758e-13
2.302569692e-13
2.227193728e-13
2.15495246e-13
2.085676523e-13
2.019207686e-13
1.95539805e-13
1.894109271e-13
1.835211865e-13
1.778584578e-13
1.724113787e-13
1.671692949e-13
1.621222096e-13
1.572607373e-13
1.525760602e-13
1.480598891e-13
1.437044261e-13
1.395023309e-13
1.354466893e-13
1.315309841e-13
1.277490684e-13
1.240951402e-13
1.2056372e-13
1.171496292e-13
1.138479701e-13
1.106541078e-13
1.075636531e-13
1.045724465e-13
1.016765442e-13
9.887220379e-14
9.615587183e-14
9.352417241e-14
9.097389571e-14
8.850198866e-14
8.610554441e-14
8.378179457e-14
8.152810025e-14
7.934194503e-14
7.722092742e-14
7.516275445e-14
7.316523546e-14
7.122627643e-14
6.934387422e-14
6.751611216e-14
6.57411546e-14
6.401724316e-14
6.234269239e-14
6.071588586e-14
5.91352726e-14
5.759936373e-14
5.610672909e-14
5.465599472e-14
5.324583961e-14
5.187499339e-14
5.054223389e-14
4.924638454e-14
4.798631247e-14
4.676092624e-14
4.556917392e-14
4.441004147e-14
4.328255088e-14
4.218575891e-14
4.111875496e-14
4.008065999e-14
3.907062501e-14
3.808783011e-14
3.713148283e-14
3.620081708e-14
3.529509227e-14
3.441359219e-14
3.355562412e-14
3.272051773e-14
3.190762406e-14
3.111631496e-14
3.034598218e-14
2.959603661e-14
2.886590754e-14
2.815504211e-14
2.746290431e-14
2.678897481e-14
2.613275e-14
2.549374158e-14
2.487147607e-14
2.426549401e-14
2.367534994e-14
2.310061138e-14
2.254085882e-14
2.199568502e-14
2.146469463e-14
2.094750386e-14
2.044374024e-14
1.995304185e-14
1.947505733e-14
1.900944537e-14
1.855587438e-14
1.811402235e-14
1.768357626e-14
1.726423199e-14
1.6855694e-14
1.64576751e-14
1.606989614e-14
1.569208577e-14
1.532398018e-14
1.496532294e-14
1.461586475e-14
1.427536303e-14
1.394358211e-14
1.362029271e-14
1.330527186e-14
1.299830262e-14
1.269917412e-14
1.240768102e-14
1.21236238e-14
1.184680826e-14
1.15770455e-14
1.131415168e-14
1.105794793e-14
1.080826013e-14
1.056491901e-14
1.032775975e-14
1.009662197e-14
9.871349651e-15
9.651790736e-15
9.437797437e-15
9.229225787e-15
9.025935724e-15
8.827790913e-15
8.634658597e-15
8.446409593e-15
8.262918095e-15
8.084061538e-15
7.909720718e-15
7.739779565e-15
7.574125022e-15
7.412647055e-15
7.255238496e-15
7.101794974e-15
6.952214857e-15
6.806399222e-15
6.664251639e-15
6.52567837e-15
6.390587964e-15
6.258891522e-15
6.130502335e-15
6.005335981e-15
5.883310189e-15
5.764344882e-15
5.648362125e-15
5.535285954e-15
5.425042399e-15
5.317559353e-15
5.212766606e-15
5.110595759e-15
5.010980203e-15
4.913855071e-15
4.819157128e-15
4.726824737e-15
4.636797946e-15
4.549018295e-15
4.463428908e-15
4.379974298e-15
4.298600366e-15
4.219254482e-15
4.14188535e-15
4.066442982e-15
3.992878663e-15
3.921144966e-15
3.851195702e-15
3.782985799e-15
3.71647141e-15
3.651609769e-15
3.588359219e-15
3.526679124e-15
3.46652986e-15
3.407872927e-15
3.350670754e-15
3.294886744e-15
3.24048522e-15
3.187431425e-15
3.135691449e-15
3.085232302e-15
3.036021839e-15
2.988028655e-15
2.941222234e-15
2.895572796e-15
2.851051301e-15
2.807629502e-15
2.765279794e-15
2.723975334e-15
2.683689924e-15
2.644398098e-15
2.606074989e-15
2.568696306e-15
2.532238461e-15
2.496678397e-15
2.461993679e-15
2.428162462e-15
2.39516342e-15
2.362975745e-15
2.331579202e-15
2.300954047e-15
2.271081047e-15
2.241941428e-15
2.213516894e-15
2.18578965e-15
2.158742327e-15
2.132357989e-15
2.106620137e-15
2.08151266e-15
2.057019883e-15
2.033126496e-15
2.00981766e-15
1.987078781e-15
1.964895726e-15
1.943254689e-15
1.9221422e-15
1.901545138e-15
1.881450686e-15
1.861846406e-15
1.842720168e-15
1.824060105e-15
1.805854627e-15
1.788092505e-15
1.770762784e-15
1.753854715e-15
1.737357893e-15
1.721262133e-15
1.70555754e-15
1.690234397e-15
1.675283286e-15
1.660695036e-15
1.646460711e-15
1.632571544e-15
1.619019015e-15
1.605794817e-15
1.59289087e-15
1.580299288e-15
1.568012373e-15
1.556022606e-15
1.54432268e-15
1.532905428e-15
1.521763924e-15
1.510891395e-15
1.500281238e-15
1.489927006e-15
1.479822408e-15
1.469961295e-15
1.460337715e-15
1.45094586e-15
1.44178003e-15
1.432834707e-15
1.424104441e-15
1.41558398e-15
1.407268197e-15
1.399152077e-15
1.391230756e-15
1.383499482e-15
1.375953603e-15
1.368588584e-15
1.361400015e-15
1.354383578e-15
1.34753508e-15
1.340850443e-15
1.334325673e-15
1.327956859e-15
1.321740225e-15
1.315672047e-15
1.309748728e-15
1.303966723e-15
1.298322619e-15
1.292813066e-15
1.287434794e-15
1.282184615e-15
1.277059413e-15
1.272056158e-15
1.267171891e-15
1.262403716e-15
1.257748852e-15
1.25320452e-15
1.248768024e-15
1.244436765e-15
1.240208185e-15
1.236079775e-15
1.232049105e-15
1.228113818e-15
1.224271594e-15
1.220520149e-15
1.216857288e-15
1.213280849e-15
1.209788713e-15
1.206378799e-15
1.203049106e-15
1.199797636e-15
1.196622475e-15
1.193521724e-15
1.190493537e-15
1.187536121e-15
1.1846477e-15
1.181826561e-15
1.179070988e-15
1.176379327e-15
1.173749951e-15
1.171181254e-15
1.168671681e-15
1.166219719e-15
1.163823863e-15
1.16148264e-15
1.159194605e-15
1.156958339e-15
1.154772489e-15
1.152635708e-15
1.150546681e-15
1.148504128e-15
1.146506801e-15
1.144553513e-15
1.142643097e-15
1.140774427e-15
1.138946415e-15
1.137158024e-15
1.135408225e-15
1.133696071e-15
1.13202061e-15
1.13038093e-15
1.11732e-15
1.103271716e-15
1.093867168e-15
1.087851243e-15
1.08442182e-15
1.083037518e-15
1.083324976e-15
1.085025513e-15
1.087962182e-15
1.092015809e-15
1.097109191e-15
1.103196019e-15
1.110252317e-15
1.1182709e-15
1.12725705e-15
1.137225621e-15
1.148198997e-15
1.160205561e-15
1.173278423e-15
1.187454893e-15
1.202775685e-15
1.219284622e-15
1.237028265e-15
1.256055523e-15
1.276417326e-15
1.298166458e-15
1.321357049e-15
1.346044299e-15
1.372283994e-15
1.400132006e-15
1.429643691e-15
1.460873264e-15
1.493872995e-15
1.528692384e-15
1.565377218e-15
1.603968505e-15
1.644501396e-15
1.687003944e-15
1.731495833e-15
1.777987055e-15
1.826476554e-15
1.876950847e-15
1.929382704e-15
1.98372985e-15
2.039933797e-15
2.097918808e-15
2.157591063e-15
2.218838056e-15
2.281528231e-15
2.345511063e-15
2.41061734e-15
2.476659996e-15
2.543435227e-15
2.610724137e-15
2.678294722e-15
2.745904295e-15
2.813302246e-15
2.880233144e-15
2.946440089e-15
3.011668157e-15
3.075668072e-15
3.138199687e-15
3.199035538e-15
3.257964034e-15
3.314792477e-15
3.369349622e-15
3.421487832e-15
3.471084704e-15
3.518044196e-15
3.56229716e-15
3.603801339e-15
3.642540831e-15
3.678525046e-15
3.711787223e-15
3.742382557e-15
3.770386004e-15
3.79588987e-15
3.819001212e-15
3.839839163e-15
3.858532261e-15
3.875215811e-15
3.890029383e-15
3.903114452e-15
3.914612262e-15
3.92466191e-15
3.933398695e-15
3.940952721e-15
3.947447765e-15
3.953000413e-15
3.957719429e-15
3.961705368e-15
3.965050385e-15
3.967838236e-15
3.970144428e-15
3.972036507e-15
3.973574452e-15
3.974811142e-15
3.975792884e-15
3.976559974e-15
3.977147273e-15
3.977584783e-15
3.977898204e-15
3.978109463e-15
3.978237211e-15
3.97829728e-15
3.97830308e-15
3.97826597e-15
3.978195561e-15
3.978099988e-15
3.97798613e-15
3.977859796e-15
3.977725875e-15
3.977588457e-15
3.97745093e-15
3.977316057e-15
3.977186038e-15
3.977062565e-15
3.976946863e-15
3.976839739e-15
3.976741616e-15
3.976652581e-15
3.976572422e-15
3.976500675e-15
3.976436672e-15
3.976379584e-15
3.976328473e-15
3.976282335e-15
3.976240145e-15
3.976200899e-15
3.976163648e-15
3.976127531e-15
3.976091797e-15
3.976055823e-15
3.976019126e-15
3.975981367e-15
3.975942346e-15
3.975901995e-15
3.975860368e-15
3.975817621e-15
3.975773991e-15
3.975729782e-15
3.975685337e-15
3.975641018e-15
3.97559719e-15
3.975554202e-15
3.975512372e-15
3.975471976e-15
3.975433242e-15
3.975396342e-15
3.975361394e-15
3.975328461e-15
3.975297554e-15
3.975268642e-15
3.975241652e-15
3.975216484e-15
3.975193012e-15
3.975171098e-15
3.975150596e-15
3.975131359e-15
3.975113246e-15
3.975096123e-15
3.975079872e-15
3.975064388e-15
3.975049581e-15
3.975035379e-15
3.975021726e-15
3.97500858e-15
3.974995911e-15
3.974983705e-15
3.974971954e-15
3.974960661e-15
3.974949837e-15
3.974939498e-15
3.974929664e-15
3.974920363e-15
3.974911622e-15
3.974903473e-15
3.97489595e-15
3.974889086e-15
3.974882916e-15
3.974877475e-15
3.974872796e-15
3.974868907e-15
3.974865836e-15
3.974863604e-15
3.974862227e-15
3.974861714e-15
3.974862065e-15
3.974863272e-15
3.974865319e-15
3.974868177e-15
3.97487181e-15
3.974876172e-15
3.974881206e-15
3.974886848e-15
3.974893026e-15
3.97489966e-15
3.974906665e-15
3.974913953e-15
3.97492143e-15
3.974929005e-15
3.974936584e-15
3.974944073e-15
3.974951386e-15
3.974958436e-15
3.974965143e-15
3.974971434e-15
3.974977243e-15
3.974982509e-15
3.974987184e-15
3.974991225e-15
3.974994599e-15
3.974997282e-15
3.97499926e-15
3.975000524e-15
3.975001077e-15
3.975000928e-15
3.975000093e-15
3.974998594e-15
3.974996461e-15
3.974993726e-15
3.974990426e-15
3.974986602e-15
3.974982298e-15
3.974977559e-15
3.974972431e-15
3.974966961e-15
3.974961198e-15
3.974955186e-15
3.974948973e-15
3.974942603e-15
3.974936119e-15
3.974929561e-15
3.974922968e-15
3.974916377e-15
3.974909822e-15
3.974903334e-15
3.97489694e-15
3.974890666e-15
3.974884535e-15
3.974878566e-15
3.974872776e-15
3.974867179e-15
3.974861786e-15
3.974856609e-15
3.974851657e-15
3.974846949e-15
3.97484253e-15
3.974838519e-15
3.974835287e-15
)
;

boundaryField
{
    inlet
    {
        type            fixedValue;
        value           uniform 0;
    }
    outlet
    {
        type            zeroGradient;
    }
    wall
    {
        type            empty;
    }
}


// ************************************************************************* //
