/*--------------------------------*- C++ -*----------------------------------*\
  =========                 |
  \\      /  F ield         | OpenFOAM: The Open Source CFD Toolbox
   \\    /   O peration     | Website:  https://openfoam.org
    \\  /    A nd           | Version:  7
     \\/     M anipulation  |
\*---------------------------------------------------------------------------*/
FoamFile
{
    version     2.0;
    format      ascii;
    class       volScalarField;
    location    "0.000558243009";
    object      CH3CHO_0;
}
// * * * * * * * * * * * * * * * * * * * * * * * * * * * * * * * * * * * * * //

dimensions      [0 0 0 0 0 0 0];

internalField   nonuniform List<scalar> 
1500
(
6.343151351e-14
2.480481991e-13
5.117539864e-13
7.678151096e-13
9.583127166e-13
1.074312787e-12
1.134390347e-12
1.161495085e-12
1.17232889e-12
1.17621651e-12
1.177482867e-12
1.177860847e-12
1.17796505e-12
1.177991765e-12
1.177998172e-12
1.177999616e-12
1.177999924e-12
1.177999986e-12
1.177999998e-12
1.178e-12
1.178e-12
1.178e-12
1.178e-12
1.178e-12
1.178e-12
1.178e-12
1.178e-12
1.178e-12
1.178e-12
1.178e-12
1.178e-12
1.178e-12
1.178e-12
1.178e-12
1.178e-12
1.178e-12
1.178e-12
1.178e-12
1.178e-12
1.178e-12
1.178e-12
1.178e-12
1.178e-12
1.178e-12
1.178e-12
1.178e-12
1.178e-12
1.178e-12
1.178e-12
1.178e-12
1.178e-12
1.178e-12
1.178e-12
1.178e-12
1.178e-12
1.178e-12
1.178e-12
1.178e-12
1.178e-12
1.178e-12
1.178e-12
1.178e-12
1.178e-12
1.178e-12
1.178e-12
1.178e-12
1.178e-12
1.178e-12
1.178e-12
1.178e-12
1.178e-12
1.178e-12
1.178e-12
1.178e-12
1.178e-12
1.178e-12
1.178e-12
1.178e-12
1.178e-12
1.178e-12
1.178e-12
1.178e-12
1.178e-12
1.178e-12
1.178e-12
1.178e-12
1.178e-12
1.178e-12
1.178e-12
1.178e-12
1.178e-12
1.178e-12
1.178e-12
1.178e-12
1.178e-12
1.178e-12
1.178e-12
1.178e-12
1.178e-12
1.178e-12
1.178e-12
1.178e-12
1.178e-12
1.178e-12
1.178e-12
1.178e-12
1.178e-12
1.178e-12
1.178e-12
1.178e-12
1.178e-12
1.178e-12
1.178e-12
1.178e-12
1.178e-12
1.178e-12
1.178e-12
1.178e-12
1.178e-12
1.178e-12
1.178e-12
1.178e-12
1.178e-12
1.178e-12
1.178e-12
1.178e-12
1.178e-12
1.178e-12
1.178e-12
1.178e-12
1.178e-12
1.178e-12
1.178e-12
1.178e-12
1.178e-12
1.178e-12
1.178e-12
1.178e-12
1.178e-12
1.178e-12
1.178e-12
1.178e-12
1.178e-12
1.178e-12
1.178e-12
1.178e-12
1.178e-12
1.178e-12
1.178e-12
1.178e-12
1.178e-12
1.178e-12
1.178e-12
1.178e-12
1.178e-12
1.178e-12
1.178e-12
1.178e-12
1.178e-12
1.178e-12
1.178e-12
1.178e-12
1.178e-12
1.178e-12
1.178e-12
1.178e-12
1.178e-12
1.178e-12
1.178e-12
1.178e-12
1.178e-12
1.178e-12
1.178e-12
1.178e-12
1.178e-12
1.178e-12
1.178e-12
1.178e-12
1.178e-12
1.178e-12
1.178e-12
1.178e-12
1.178e-12
1.178e-12
1.178e-12
1.178e-12
1.178e-12
1.178e-12
1.178e-12
1.178e-12
1.178e-12
1.178e-12
1.178e-12
1.178e-12
1.178e-12
1.178e-12
1.178e-12
1.178e-12
1.178e-12
1.178e-12
1.178e-12
1.178e-12
1.178e-12
1.178e-12
1.178e-12
1.178e-12
1.178e-12
1.178e-12
1.178e-12
1.178e-12
1.178e-12
1.178e-12
1.178e-12
1.178e-12
1.178e-12
1.178e-12
1.178e-12
1.178e-12
1.178e-12
1.178e-12
1.178e-12
1.178e-12
1.178e-12
1.178e-12
1.178e-12
1.178e-12
1.178e-12
1.178e-12
1.178e-12
1.178e-12
1.178e-12
1.178e-12
1.178e-12
1.178e-12
1.178e-12
1.178000001e-12
1.178000001e-12
1.178000003e-12
1.178000013e-12
1.178000047e-12
1.178000166e-12
1.17800056e-12
1.178001773e-12
1.178005263e-12
1.178014579e-12
1.178037514e-12
1.17808904e-12
1.178192813e-12
1.178373441e-12
1.17862004e-12
1.178706449e-12
1.178731843e-12
1.178758227e-12
1.178785651e-12
1.178814151e-12
1.178843766e-12
1.178874539e-12
1.17890652e-12
1.17893976e-12
1.178974315e-12
1.179010245e-12
1.17904761e-12
1.179086475e-12
1.179126907e-12
1.179168978e-12
1.179212762e-12
1.179258339e-12
1.179305791e-12
1.179355204e-12
1.179406672e-12
1.179460291e-12
1.179516163e-12
1.179574395e-12
1.179635101e-12
1.179698401e-12
1.17976442e-12
1.179833293e-12
1.179905159e-12
1.179980167e-12
1.180058473e-12
1.180140244e-12
1.180225653e-12
1.180314886e-12
1.180408137e-12
1.180505613e-12
1.180607531e-12
1.180714123e-12
1.18082563e-12
1.180942311e-12
1.181064437e-12
1.181192297e-12
1.181326195e-12
1.181466452e-12
1.181613408e-12
1.181767424e-12
1.18192888e-12
1.182098177e-12
1.182275742e-12
1.182462025e-12
1.1826575e-12
1.182862672e-12
1.183078071e-12
1.18330426e-12
1.183541832e-12
1.183791416e-12
1.184053676e-12
1.184329312e-12
1.184619065e-12
1.184923717e-12
1.185244096e-12
1.185581072e-12
1.185935568e-12
1.186308555e-12
1.18670106e-12
1.187114165e-12
1.187549011e-12
1.188006804e-12
1.188488812e-12
1.188996374e-12
1.189530899e-12
1.190093872e-12
1.190686859e-12
1.191311505e-12
1.191969544e-12
1.192662801e-12
1.193393193e-12
1.194162738e-12
1.194973556e-12
1.195827876e-12
1.196728039e-12
1.197676502e-12
1.198675846e-12
1.199728778e-12
1.200838139e-12
1.202006907e-12
1.203238203e-12
1.204535297e-12
1.205901615e-12
1.207340742e-12
1.208856433e-12
1.210452612e-12
1.212133383e-12
1.213903038e-12
1.215766059e-12
1.217727127e-12
1.219791127e-12
1.221963159e-12
1.224248539e-12
1.22665281e-12
1.229181749e-12
1.23184137e-12
1.234637936e-12
1.237577964e-12
1.240668231e-12
1.243915783e-12
1.247327942e-12
1.250912311e-12
1.254676783e-12
1.258629548e-12
1.2627791e-12
1.267134243e-12
1.271704097e-12
1.276498108e-12
1.28152605e-12
1.286798038e-12
1.292324524e-12
1.298116315e-12
1.304184569e-12
1.310540805e-12
1.31719691e-12
1.324165141e-12
1.331458128e-12
1.339088885e-12
1.347070809e-12
1.355417684e-12
1.364143687e-12
1.373263388e-12
1.382791757e-12
1.39274416e-12
1.403136367e-12
1.413984548e-12
1.425305276e-12
1.43711553e-12
1.449432689e-12
1.462274535e-12
1.47565925e-12
1.489605416e-12
1.504132009e-12
1.5192584e-12
1.535004345e-12
1.551389988e-12
1.56843585e-12
1.586162824e-12
1.604592173e-12
1.623745516e-12
1.643644825e-12
1.664312415e-12
1.685770933e-12
1.708043353e-12
1.73115296e-12
1.75512334e-12
1.779978371e-12
1.805742207e-12
1.832439267e-12
1.86009422e-12
1.88873197e-12
1.918377644e-12
1.949056571e-12
1.980794273e-12
2.013616442e-12
2.047548925e-12
2.082617709e-12
2.118848901e-12
2.156268708e-12
2.194903421e-12
2.234779397e-12
2.275923036e-12
2.318360766e-12
2.362119022e-12
2.407224225e-12
2.453702767e-12
2.501580987e-12
2.550885154e-12
2.601641451e-12
2.653875951e-12
2.707614603e-12
2.762883214e-12
2.819707429e-12
2.878112718e-12
2.938124358e-12
2.99976742e-12
3.063066754e-12
3.128046974e-12
3.19473245e-12
3.263147294e-12
3.333315354e-12
3.405260202e-12
3.479005131e-12
3.554573147e-12
3.63198697e-12
3.711269029e-12
3.792441464e-12
3.875526131e-12
3.960544602e-12
4.047518179e-12
4.136467897e-12
4.227414543e-12
4.320378663e-12
4.415380589e-12
4.512440451e-12
4.611578208e-12
4.712813669e-12
4.816166527e-12
4.921656392e-12
5.029302825e-12
5.139125383e-12
5.25114366e-12
5.365377339e-12
5.481846239e-12
5.600570376e-12
5.721570024e-12
5.844865775e-12
5.970478614e-12
6.09842999e-12
6.228741896e-12
6.361436953e-12
6.496538495e-12
6.63407067e-12
6.77405853e-12
6.916528142e-12
7.061506695e-12
7.209022612e-12
7.359105676e-12
7.511787154e-12
7.667099926e-12
7.825078627e-12
7.985759791e-12
8.149182e-12
8.315386038e-12
8.484415059e-12
8.656314753e-12
8.831133524e-12
9.008922669e-12
9.189736572e-12
9.373632898e-12
9.560672796e-12
9.75092111e-12
9.944446599e-12
1.014132216e-11
1.034162506e-11
1.054543718e-11
1.075284526e-11
1.096394115e-11
1.11788221e-11
1.1397591e-11
1.162035667e-11
1.184723417e-11
1.207834507e-11
1.231381778e-11
1.255378784e-11
1.279839829e-11
1.304779998e-11
1.330215188e-11
1.356162151e-11
1.382638526e-11
1.409662876e-11
1.437254731e-11
1.465434625e-11
1.494224136e-11
1.523645934e-11
1.553723819e-11
1.58448277e-11
1.615948997e-11
1.648149971e-11
1.681114503e-11
1.714872779e-11
1.7494564e-11
1.784898455e-11
1.821233569e-11
1.85849797e-11
1.896729542e-11
1.935967895e-11
1.976254427e-11
2.017632385e-11
2.06014694e-11
2.103845253e-11
2.148776547e-11
2.194992193e-11
2.242545763e-11
2.291493145e-11
2.341892617e-11
2.393804944e-11
2.447293466e-11
2.502424214e-11
2.559266021e-11
2.617890611e-11
2.678372725e-11
2.740790243e-11
2.805224327e-11
2.87175956e-11
2.9404841e-11
3.011489841e-11
3.084872594e-11
3.160732276e-11
3.239173117e-11
3.320303888e-11
3.404238154e-11
3.491094542e-11
3.580997049e-11
3.67407538e-11
3.770465322e-11
3.870309171e-11
3.973756204e-11
4.080963223e-11
4.192095166e-11
4.307325802e-11
4.426838539e-11
4.550827335e-11
4.67949776e-11
4.813068221e-11
4.95177138e-11
5.095855801e-11
5.245587871e-11
5.401254043e-11
5.563163453e-11
5.731650993e-11
5.90708091e-11
6.089851041e-11
6.280397787e-11
6.479201972e-11
6.686795758e-11
6.903770787e-11
7.130787809e-11
7.368588044e-11
7.618006621e-11
7.879988468e-11
8.155607118e-11
8.446086962e-11
8.752829611e-11
9.077445104e-11
9.4217889e-11
9.788005703e-11
1.017858141e-10
1.05964047e-10
1.104484003e-10
1.152781424e-10
1.204991922e-10
1.261653368e-10
1.323396759e-10
1.39096335e-10
1.465224979e-10
1.547208175e-10
1.638122759e-10
1.739395775e-10
1.852711746e-10
1.980060428e-10
2.123793472e-10
2.286691638e-10
2.472044548e-10
2.683745296e-10
2.926402688e-10
3.205474408e-10
3.527424989e-10
3.899913221e-10
4.332014465e-10
4.834484389e-10
5.420071802e-10
6.103889753e-10
6.903855703e-10
7.841213635e-10
8.941153307e-10
1.023354472e-09
1.175380916e-09
1.354395227e-09
1.565378903e-09
1.814239645e-09
2.107983609e-09
2.454919638e-09
2.8649014e-09
3.349614447e-09
3.922916503e-09
4.60124081e-09
5.404074179e-09
6.354523523e-09
7.47998717e-09
8.812950238e-09
1.039192687e-08
1.226257627e-08
1.447902438e-08
1.710542882e-08
2.021783138e-08
2.390635055e-08
2.827777574e-08
3.345863582e-08
3.959882776e-08
4.687590583e-08
5.550014974e-08
6.572055043e-08
7.783187615e-08
9.218300908e-08
1.091867749e-07
1.293315242e-07
1.531947679e-07
1.81459216e-07
2.149316249e-07
2.54564921e-07
3.014841371e-07
3.570167768e-07
4.22728307e-07
5.004635714e-07
5.923950183e-07
7.01078738e-07
8.295194141e-07
9.812453951e-07
1.16039519e-06
1.371816777e-06
1.621181162e-06
1.915111661e-06
2.261330333e-06
2.668822888e-06
3.148023218e-06
3.711018356e-06
4.371774252e-06
5.146382116e-06
6.053324281e-06
7.113757552e-06
8.351810807e-06
9.794892243e-06
1.147400014e-05
1.34240295e-05
1.568406525e-05
1.829765156e-05
2.131302565e-05
2.478330397e-05
2.876660905e-05
3.332612625e-05
3.853008152e-05
4.445163458e-05
5.116868522e-05
5.876359504e-05
6.732283129e-05
7.693654392e-05
8.769809057e-05
9.97035273e-05
0.0001130510844
0.0001278406473
0.0001441732624
0.0001621506858
0.0001818749895
0.000203448244
0.0002269722708
0.0002525484863
0.0002802778249
0.0003102607404
0.0003425972935
0.0003773873635
0.0004147311716
0.000454712434
0.0004974772601
0.0005430265062
0.0005917377896
0.0006436913694
0.0006990248217
0.0007564806841
0.0008166723223
0.0008792129541
0.0009433446666
0.00100782207
0.001070923853
0.001130706037
0.001185344283
0.001233279004
0.00127324973
0.001304170633
0.001325628255
0.001335958439
0.001334924788
0.001321976973
0.001296599595
0.001259054686
0.001209385366
0.001148149666
0.001076352319
0.0009953628202
0.0009067826651
0.0008125925754
0.0007151864222
0.0006173302408
0.0005220049677
0.0004319066974
0.0003501273311
0.0002779541026
0.0002168734122
0.0001665785394
0.0001263026864
9.480486555e-05
7.064730636e-05
5.230492303e-05
3.849069077e-05
2.825392531e-05
2.071310903e-05
1.517772353e-05
1.112408555e-05
8.15589911e-06
5.981346411e-06
4.388103944e-06
3.223296417e-06
2.379943969e-06
1.760552241e-06
1.302045652e-06
9.650867564e-07
7.168626891e-07
5.335711398e-07
3.979221561e-07
2.973216943e-07
2.225947746e-07
1.669456361e-07
1.254443733e-07
9.443918862e-08
7.123471005e-08
5.383774305e-08
4.077172429e-08
3.094093954e-08
2.353093314e-08
1.793531671e-08
1.370188083e-08
1.049284961e-08
8.055518151e-09
6.200524363e-09
4.785744472e-09
3.704337829e-09
2.87585808e-09
2.23963401e-09
1.749833023e-09
1.371773955e-09
1.079168941e-09
8.52057183e-10
6.75254793e-10
5.371900947e-10
4.290272751e-10
3.440060267e-10
2.769432181e-10
2.238562792e-10
1.816781462e-10
1.480411763e-10
1.211130911e-10
9.947221987e-11
8.201247376e-11
6.787084075e-11
5.637196728e-11
4.698572142e-11
3.929463435e-11
3.296887067e-11
2.774694618e-11
2.34208406e-11
1.982447712e-11
1.682478573e-11
1.431475349e-11
1.220800551e-11
1.043456801e-11
8.937546049e-12
7.670510752e-12
6.595438112e-12
5.681077874e-12
4.901658483e-12
4.235855461e-12
3.66596683e-12
3.177251767e-12
2.757398341e-12
2.396093636e-12
2.084675365e-12
1.815848557e-12
1.583454354e-12
1.38228072e-12
1.207906936e-12
1.056575443e-12
9.250858975e-13
8.107073125e-13
7.111049938e-13
6.242796008e-13
5.485161853e-13
4.823414634e-13
4.244879028e-13
3.738634643e-13
3.295260536e-13
2.906619023e-13
2.565672359e-13
2.266327014e-13
2.003301127e-13
1.772011503e-13
1.568477118e-13
1.389236577e-13
1.231277421e-13
1.091975479e-13
9.690427721e-14
8.604827213e-14
7.645515582e-14
6.797250736e-14
6.046699051e-14
5.382187363e-14
4.793488417e-14
4.271635095e-14
3.80875948e-14
3.397953157e-14
3.033146016e-14
2.709000842e-14
2.420821727e-14
2.164474262e-14
1.936316024e-14
1.73313599e-14
1.552101709e-14
1.390713084e-14
1.246762062e-14
1.118297334e-14
1.003593483e-14
9.011239219e-15
8.095372253e-15
7.276363586e-15
6.543604374e-15
5.88768726e-15
5.300265784e-15
4.773930758e-15
4.302101726e-15
3.87893084e-15
3.49921871e-15
3.158340483e-15
2.852179926e-15
2.577071699e-15
2.329750498e-15
2.107305795e-15
1.907142188e-15
1.726944188e-15
1.564645024e-15
1.418398827e-15
1.286556796e-15
1.167644978e-15
1.060345367e-15
9.634787126e-16
8.75989851e-16
7.969337258e-16
7.25463837e-16
6.608215295e-16
6.023267769e-16
5.493694159e-16
5.014019004e-16
4.579330117e-16
4.185213817e-16
3.827704179e-16
3.503237826e-16
3.208610378e-16
2.9409398e-16
2.697632186e-16
2.476353276e-16
2.275000617e-16
2.091678646e-16
1.924680659e-16
1.772467228e-16
1.633650356e-16
1.506976388e-16
1.391315133e-16
1.285645923e-16
1.189045989e-16
1.100682042e-16
1.019800283e-16
9.457191544e-17
8.778223176e-17
8.155512672e-17
7.584016886e-17
7.059157372e-17
6.576781753e-17
6.133137889e-17
5.724815374e-17
5.348725153e-17
5.002064737e-17
4.682284467e-17
4.387067708e-17
4.114309858e-17
3.862104083e-17
3.628713521e-17
3.412560511e-17
3.212203745e-17
3.026334516e-17
2.853759543e-17
2.693389015e-17
2.544235161e-17
2.405395049e-17
2.276041662e-17
2.155423224e-17
2.042848991e-17
1.937693333e-17
1.839379006e-17
1.747381716e-17
1.661219277e-17
1.580454911e-17
1.504686847e-17
1.433538265e-17
1.366669979e-17
1.303770706e-17
1.244555364e-17
1.188761967e-17
1.13615151e-17
1.086500293e-17
1.039604252e-17
9.952755994e-18
9.533392475e-18
9.136356163e-18
8.760175175e-18
8.403495559e-18
8.065032849e-18
7.743652442e-18
7.43828564e-18
7.147917787e-18
6.871638406e-18
6.608585338e-18
6.357954344e-18
6.11902064e-18
5.891115586e-18
5.673573471e-18
5.4658185e-18
5.267280225e-18
5.077482345e-18
4.895915249e-18
4.722139021e-18
4.555747714e-18
4.396335812e-18
4.243546244e-18
4.097050415e-18
3.956515825e-18
3.821644114e-18
3.69213885e-18
3.567754324e-18
3.448245834e-18
3.333382304e-18
3.222945416e-18
3.1167248e-18
3.014517182e-18
2.916143219e-18
2.821431627e-18
2.730216405e-18
2.642332618e-18
2.557644421e-18
2.476019806e-18
2.397318166e-18
2.321430566e-18
2.248237109e-18
2.177608331e-18
2.109437162e-18
2.043635401e-18
1.980115427e-18
1.918778615e-18
1.859538311e-18
1.802306182e-18
1.747019617e-18
1.693599366e-18
1.6419536e-18
1.592009135e-18
1.543727952e-18
1.497032895e-18
1.451874322e-18
1.408193866e-18
1.365948535e-18
1.325074913e-18
1.285520036e-18
1.247237884e-18
1.210186039e-18
1.17431426e-18
1.139582635e-18
1.105950024e-18
1.073381922e-18
1.041848388e-18
1.011294806e-18
9.81699749e-19
9.530290477e-19
9.252481851e-19
8.983321016e-19
8.722377088e-19
8.469441983e-19
8.224315074e-19
7.986769346e-19
7.756481841e-19
7.53326554e-19
7.316847919e-19
7.107009199e-19
6.903584415e-19
6.706311592e-19
6.514998866e-19
6.329378222e-19
6.149341421e-19
5.974665648e-19
5.80521235e-19
5.640862425e-19
5.481423179e-19
5.326613926e-19
5.17640745e-19
5.030648089e-19
4.889209262e-19
4.751976607e-19
4.618786096e-19
4.489483129e-19
4.363944503e-19
4.242085741e-19
4.123860996e-19
4.009024932e-19
3.897555157e-19
3.789275109e-19
3.684084298e-19
3.581956594e-19
3.482780915e-19
3.386542183e-19
3.293046189e-19
3.202230141e-19
3.113971751e-19
3.028212838e-19
2.944959685e-19
2.864151407e-19
2.785622822e-19
2.709353981e-19
2.63521288e-19
2.563205517e-19
2.493281583e-19
2.425294766e-19
2.359233843e-19
2.295079958e-19
2.232726474e-19
2.172107094e-19
2.113185811e-19
2.055857488e-19
2.000155427e-19
1.946023848e-19
1.893436552e-19
1.84234201e-19
1.792709936e-19
1.744404973e-19
1.697438625e-19
1.651758763e-19
1.607373478e-19
1.564232451e-19
1.522310899e-19
1.481557377e-19
1.441941714e-19
1.403419177e-19
1.365978848e-19
1.329549449e-19
1.294067837e-19
1.259572738e-19
1.226003265e-19
1.193407985e-19
1.16174932e-19
1.130959571e-19
1.10098658e-19
1.071833784e-19
1.043453052e-19
1.015821831e-19
9.889239489e-20
9.627789239e-20
9.373254523e-20
9.126039617e-20
8.885399195e-20
8.652069457e-20
8.424706558e-20
8.203247022e-20
7.98761785e-20
7.777694034e-20
7.573481527e-20
7.374652952e-20
7.181522025e-20
6.993463619e-20
6.810439688e-20
6.632682336e-20
6.459234078e-20
6.290720324e-20
6.126993535e-20
5.96722978e-20
5.81198479e-20
5.660599178e-20
5.513206778e-20
5.369743331e-20
5.230154385e-20
5.094346525e-20
4.962022332e-20
4.833422247e-20
4.708114312e-20
4.586061538e-20
4.467674342e-20
4.352457758e-20
4.240041363e-20
4.130679224e-20
4.024040943e-20
3.920443915e-20
3.819367433e-20
3.720976668e-20
3.625418735e-20
3.532453101e-20
3.441679825e-20
3.353275865e-20
3.266839924e-20
3.182987642e-20
3.101258635e-20
3.021970336e-20
2.944606256e-20
2.869440786e-20
2.796577253e-20
2.725336104e-20
2.6558233e-20
2.587914553e-20
2.521856932e-20
2.457722101e-20
2.395348499e-20
2.334408144e-20
2.274916064e-20
2.217131976e-20
2.160759678e-20
2.106113504e-20
2.052889557e-20
2.001090241e-20
1.950439668e-20
1.900974391e-20
1.852809103e-20
1.80611015e-20
1.760646241e-20
1.716217001e-20
1.672809646e-20
1.630561143e-20
1.589556401e-20
1.549613947e-20
1.510712052e-20
1.472622895e-20
1.435221427e-20
1.39886437e-20
1.363559624e-20
1.329302941e-20
1.296079441e-20
1.263603264e-20
1.231887988e-20
1.200933889e-20
1.171068252e-20
1.141925573e-20
1.113646813e-20
1.085833187e-20
1.058707323e-20
1.032289607e-20
1.006504613e-20
9.812990454e-21
9.567969115e-21
9.329581362e-21
9.097250335e-21
8.871746923e-21
8.652243862e-21
8.438706038e-21
8.230998322e-21
8.02739642e-21
7.828808245e-21
7.636767882e-21
7.448591347e-21
7.265034292e-21
7.086036891e-21
6.910425294e-21
6.740296645e-21
6.573324603e-21
6.41020225e-21
6.252086071e-21
6.098498528e-21
5.948082905e-21
5.80100989e-21
5.659161611e-21
5.521989419e-21
5.386150778e-21
5.254897374e-21
5.127322189e-21
5.001476107e-21
4.877926996e-21
4.757365962e-21
4.641301425e-21
4.527244834e-21
4.417013161e-21
4.310965374e-21
4.208635029e-21
4.107511122e-21
4.009404031e-21
3.913515827e-21
3.818589722e-21
3.725064815e-21
3.633909641e-21
3.546291531e-21
3.458976214e-21
3.375029775e-21
3.291910401e-21
3.211140456e-21
3.132875693e-21
3.056048364e-21
2.980416857e-21
2.906802286e-21
2.837249887e-21
2.769936553e-21
2.70308608e-21
2.637222967e-21
2.573428405e-21
2.511681649e-21
2.451786815e-21
2.392692834e-21
2.333171683e-21
2.276220354e-21
2.220579583e-21
2.166257168e-21
2.114044238e-21
2.062977858e-21
2.010487176e-21
1.960761886e-21
1.911581115e-21
1.864108546e-21
1.478700143e-21
1.073159223e-21
7.844306365e-22
5.800792451e-22
4.420087228e-22
3.391028322e-22
2.772733217e-22
2.280864346e-22
1.891339966e-22
1.625093535e-22
1.516950067e-22
1.369077361e-22
1.272564145e-22
1.243785334e-22
1.225072038e-22
1.192840023e-22
1.172147023e-22
1.182654086e-22
1.195092885e-22
1.212106197e-22
1.219082332e-22
1.238511398e-22
1.242359684e-22
1.282119921e-22
1.303427138e-22
1.335894183e-22
1.368467862e-22
1.402634007e-22
1.439697327e-22
1.480099128e-22
1.521947345e-22
1.569224923e-22
1.618032935e-22
1.671251353e-22
1.729171602e-22
1.787729789e-22
1.849736555e-22
1.9185292e-22
1.990316064e-22
2.06571218e-22
2.146350739e-22
2.230754901e-22
2.31883119e-22
2.411711229e-22
2.509804067e-22
2.610183959e-22
2.716755667e-22
2.827741376e-22
2.939011888e-22
3.059841517e-22
3.177550617e-22
3.303554328e-22
3.428792814e-22
3.560328423e-22
3.692191304e-22
3.82468988e-22
3.958411934e-22
4.096596234e-22
4.230125036e-22
4.36155433e-22
4.494366338e-22
4.623675742e-22
4.753506432e-22
4.877939294e-22
5.000010441e-22
5.11692211e-22
5.23071889e-22
5.339090481e-22
5.442503908e-22
5.540327017e-22
5.632768013e-22
5.719566913e-22
5.801117348e-22
5.875994741e-22
5.945718777e-22
6.009098577e-22
6.068169007e-22
6.121360113e-22
6.1693389e-22
6.211695865e-22
6.250697895e-22
6.284232898e-22
6.314862381e-22
6.342370441e-22
6.36548055e-22
6.385075242e-22
6.402481402e-22
6.417190595e-22
6.430136918e-22
6.440950538e-22
6.450168935e-22
6.457570834e-22
6.463908395e-22
6.468978661e-22
6.473198608e-22
6.476520996e-22
6.4791765e-22
6.481299255e-22
6.48292306e-22
6.484208907e-22
6.485119967e-22
6.485802463e-22
6.486292644e-22
6.486595959e-22
6.486789132e-22
6.486871994e-22
6.486914205e-22
6.486868346e-22
6.486832981e-22
6.486688581e-22
6.486590383e-22
6.48646008e-22
6.486292094e-22
6.486167977e-22
6.4859866e-22
6.485849334e-22
6.485710137e-22
6.485568053e-22
6.485431677e-22
6.485294584e-22
6.485172189e-22
6.485052306e-22
6.484946967e-22
6.484848092e-22
6.484740955e-22
6.484670412e-22
6.484586859e-22
6.484523752e-22
6.484448655e-22
6.484391017e-22
6.484336342e-22
6.484284908e-22
6.484241097e-22
6.484202551e-22
6.484164977e-22
6.484119074e-22
6.484066193e-22
6.48403766e-22
6.484010619e-22
6.483943271e-22
6.483901533e-22
6.48385948e-22
6.48381649e-22
6.48376318e-22
6.48373093e-22
6.483671149e-22
6.483616287e-22
6.483629564e-22
6.483551797e-22
6.483514319e-22
6.483474487e-22
6.483434024e-22
6.483367261e-22
6.4833465e-22
6.483324345e-22
6.483308829e-22
6.483278293e-22
6.483269189e-22
6.483232311e-22
6.483223275e-22
6.483196184e-22
6.483174501e-22
6.483163216e-22
6.483159349e-22
6.483103073e-22
6.483092518e-22
6.483061544e-22
6.483043777e-22
6.483011426e-22
6.483056706e-22
6.482995974e-22
6.483011811e-22
6.482982156e-22
6.482978747e-22
6.482970162e-22
6.482941106e-22
6.482947333e-22
6.482942597e-22
6.482938961e-22
6.482929459e-22
6.482943875e-22
6.482922877e-22
6.48290624e-22
6.48289777e-22
6.48293136e-22
6.482880605e-22
6.482894786e-22
6.482886589e-22
6.482893828e-22
6.482875728e-22
6.482910003e-22
6.482929023e-22
6.482893322e-22
6.482926209e-22
6.482938838e-22
6.482925046e-22
6.482933333e-22
6.482948222e-22
6.482951438e-22
6.482948544e-22
6.482944762e-22
6.482972343e-22
6.482990002e-22
6.482985773e-22
6.482976275e-22
6.482985934e-22
6.482994366e-22
6.483024457e-22
6.483013645e-22
6.483009376e-22
6.483019106e-22
6.483036299e-22
6.483007419e-22
6.483017386e-22
6.483026959e-22
6.483041588e-22
6.483020147e-22
6.483020788e-22
6.483006179e-22
6.483009155e-22
6.483005149e-22
6.482998585e-22
6.482990636e-22
6.482985534e-22
6.482977691e-22
6.482966485e-22
6.482961129e-22
6.482950861e-22
6.482936625e-22
6.482931972e-22
6.482915897e-22
6.482905926e-22
6.482894925e-22
6.482891995e-22
6.482873489e-22
6.482874387e-22
6.482871589e-22
6.482840886e-22
6.482830808e-22
6.482824547e-22
6.482794641e-22
6.482804105e-22
6.482783724e-22
6.482792931e-22
6.482778469e-22
6.482756417e-22
6.482745193e-22
6.482772171e-22
6.482789908e-22
6.482743262e-22
)
;

boundaryField
{
    inlet
    {
        type            fixedValue;
        value           uniform 0;
    }
    outlet
    {
        type            zeroGradient;
    }
    wall
    {
        type            empty;
    }
}


// ************************************************************************* //
