/*--------------------------------*- C++ -*----------------------------------*\
  =========                 |
  \\      /  F ield         | OpenFOAM: The Open Source CFD Toolbox
   \\    /   O peration     | Website:  https://openfoam.org
    \\  /    A nd           | Version:  7
     \\/     M anipulation  |
\*---------------------------------------------------------------------------*/
FoamFile
{
    version     2.0;
    format      ascii;
    class       volScalarField;
    location    "0.000558243009";
    object      CH3CO_0;
}
// * * * * * * * * * * * * * * * * * * * * * * * * * * * * * * * * * * * * * //

dimensions      [0 0 0 0 0 0 0];

internalField   nonuniform List<scalar> 
1500
(
2.167582698e-20
8.477052911e-20
1.749073025e-19
2.624425109e-19
3.275716626e-19
3.672341467e-19
3.877769833e-19
3.970455602e-19
4.007503616e-19
4.020798559e-19
4.025129691e-19
4.02642289e-19
4.026779898e-19
4.026871921e-19
4.026894454e-19
4.02689994e-19
4.026901446e-19
4.026902021e-19
4.026902345e-19
4.026902572e-19
4.02690274e-19
4.026902865e-19
4.026902952e-19
4.026903005e-19
4.026903028e-19
4.026903024e-19
4.026903e-19
4.026902962e-19
4.026902917e-19
4.026902872e-19
4.026902833e-19
4.026902804e-19
4.026902787e-19
4.026902783e-19
4.026902794e-19
4.026902817e-19
4.026902852e-19
4.026902896e-19
4.026902949e-19
4.026903008e-19
4.026903071e-19
4.026903136e-19
4.026903201e-19
4.026903265e-19
4.026903325e-19
4.026903382e-19
4.026903435e-19
4.026903482e-19
4.026903525e-19
4.026903562e-19
4.026903596e-19
4.026903626e-19
4.026903653e-19
4.026903678e-19
4.0269037e-19
4.026903721e-19
4.02690374e-19
4.026903757e-19
4.026903773e-19
4.026903787e-19
4.026903798e-19
4.026903807e-19
4.026903812e-19
4.026903814e-19
4.026903812e-19
4.026903805e-19
4.026903794e-19
4.026903778e-19
4.026903758e-19
4.026903732e-19
4.026903702e-19
4.026903668e-19
4.02690363e-19
4.02690359e-19
4.026903547e-19
4.026903503e-19
4.026903458e-19
4.026903414e-19
4.026903372e-19
4.026903332e-19
4.026903295e-19
4.026903263e-19
4.026903236e-19
4.026903215e-19
4.0269032e-19
4.026903192e-19
4.026903191e-19
4.026903196e-19
4.026903209e-19
4.026903229e-19
4.026903255e-19
4.026903288e-19
4.026903326e-19
4.026903369e-19
4.026903417e-19
4.026903468e-19
4.026903521e-19
4.026903577e-19
4.026903633e-19
4.026903689e-19
4.026903745e-19
4.026903799e-19
4.02690385e-19
4.026903899e-19
4.026903945e-19
4.026903987e-19
4.026904024e-19
4.026904058e-19
4.026904088e-19
4.026904114e-19
4.026904136e-19
4.026904155e-19
4.026904171e-19
4.026904184e-19
4.026904195e-19
4.026904205e-19
4.026904213e-19
4.02690422e-19
4.026904226e-19
4.026904232e-19
4.026904237e-19
4.026904242e-19
4.026904246e-19
4.026904251e-19
4.026904254e-19
4.026904258e-19
4.026904261e-19
4.026904263e-19
4.026904264e-19
4.026904265e-19
4.026904265e-19
4.026904264e-19
4.026904262e-19
4.02690426e-19
4.026904256e-19
4.026904252e-19
4.026904246e-19
4.02690424e-19
4.026904233e-19
4.026904224e-19
4.026904214e-19
4.026904203e-19
4.026904191e-19
4.026904176e-19
4.02690416e-19
4.026904142e-19
4.026904122e-19
4.0269041e-19
4.026904076e-19
4.02690405e-19
4.026904021e-19
4.026903991e-19
4.02690396e-19
4.026903926e-19
4.026903892e-19
4.026903856e-19
4.02690382e-19
4.026903784e-19
4.026903748e-19
4.026903712e-19
4.026903678e-19
4.026903644e-19
4.026903612e-19
4.026903582e-19
4.026903553e-19
4.026903528e-19
4.026903504e-19
4.026903484e-19
4.026903467e-19
4.026903454e-19
4.026903444e-19
4.026903437e-19
4.026903435e-19
4.026903437e-19
4.026903444e-19
4.026903454e-19
4.02690347e-19
4.026903489e-19
4.026903513e-19
4.026903542e-19
4.026903574e-19
4.026903611e-19
4.02690365e-19
4.026903693e-19
4.026903737e-19
4.026903783e-19
4.02690383e-19
4.026903877e-19
4.026903922e-19
4.026903965e-19
4.026904005e-19
4.026904041e-19
4.026904072e-19
4.026904097e-19
4.026904115e-19
4.026904126e-19
4.026904129e-19
4.026904125e-19
4.026904114e-19
4.026904095e-19
4.026904069e-19
4.026904036e-19
4.026903998e-19
4.026903954e-19
4.026903905e-19
4.026903852e-19
4.026903796e-19
4.026903737e-19
4.026903675e-19
4.026903613e-19
4.026903549e-19
4.026903486e-19
4.026903425e-19
4.026903367e-19
4.026903314e-19
4.026903267e-19
4.026903227e-19
4.026903196e-19
4.026903172e-19
4.026903156e-19
4.026903144e-19
4.026903134e-19
4.02690312e-19
4.026903097e-19
4.026903059e-19
4.026902998e-19
4.026902909e-19
4.026902785e-19
4.026902625e-19
4.026902428e-19
4.026902195e-19
4.026901934e-19
4.026901655e-19
4.026901371e-19
4.026901097e-19
4.026900849e-19
4.026900646e-19
4.026900504e-19
4.026900449e-19
4.026900544e-19
4.026900988e-19
4.026902406e-19
4.026906632e-19
4.026918588e-19
4.026950321e-19
4.027028312e-19
4.027203505e-19
4.027556414e-19
4.028170827e-19
4.029009779e-19
4.029303781e-19
4.029390183e-19
4.029479958e-19
4.029573271e-19
4.029670245e-19
4.029771015e-19
4.02987573e-19
4.029984554e-19
4.030097665e-19
4.030215255e-19
4.030337521e-19
4.030464674e-19
4.030596932e-19
4.030734528e-19
4.030877702e-19
4.031026709e-19
4.031181818e-19
4.031343309e-19
4.031511481e-19
4.031686647e-19
4.031869135e-19
4.032059293e-19
4.032257488e-19
4.032464105e-19
4.032679553e-19
4.032904261e-19
4.033138683e-19
4.033383296e-19
4.033638607e-19
4.033905149e-19
4.034183485e-19
4.034474211e-19
4.034777954e-19
4.03509538e-19
4.03542719e-19
4.035774126e-19
4.036136973e-19
4.036516558e-19
4.03691376e-19
4.037329503e-19
4.037764768e-19
4.038220591e-19
4.038698067e-19
4.039198355e-19
4.03972268e-19
4.040272337e-19
4.040848696e-19
4.041453207e-19
4.0420874e-19
4.042752895e-19
4.043451406e-19
4.044184742e-19
4.044954817e-19
4.045763655e-19
4.046613393e-19
4.047506291e-19
4.048444737e-19
4.049431251e-19
4.0504685e-19
4.051559296e-19
4.052706609e-19
4.053913578e-19
4.055183512e-19
4.056519904e-19
4.057926441e-19
4.059407011e-19
4.060965714e-19
4.062606873e-19
4.064335043e-19
4.066155025e-19
4.068071878e-19
4.070090927e-19
4.072217781e-19
4.074458341e-19
4.076818818e-19
4.079305745e-19
4.081925991e-19
4.084686776e-19
4.087595688e-19
4.090660698e-19
4.093890175e-19
4.097292906e-19
4.100878109e-19
4.104655456e-19
4.108635087e-19
4.112827631e-19
4.117244223e-19
4.121896527e-19
4.126796753e-19
4.13195768e-19
4.137392674e-19
4.143115713e-19
4.149141405e-19
4.155485013e-19
4.162162475e-19
4.169190429e-19
4.176586234e-19
4.184367995e-19
4.192554586e-19
4.201165673e-19
4.21022174e-19
4.219744109e-19
4.229754969e-19
4.240277398e-19
4.251335386e-19
4.262953861e-19
4.275158713e-19
4.28797682e-19
4.301436066e-19
4.315565371e-19
4.330394711e-19
4.345955143e-19
4.362278826e-19
4.379399044e-19
4.397350227e-19
4.416167975e-19
4.435889074e-19
4.456551521e-19
4.478194538e-19
4.500858593e-19
4.524585418e-19
4.549418023e-19
4.575400712e-19
4.602579099e-19
4.631000118e-19
4.660712036e-19
4.691764464e-19
4.724208365e-19
4.758096062e-19
4.793481241e-19
4.830418959e-19
4.868965645e-19
4.909179101e-19
4.951118499e-19
4.994844381e-19
5.04041865e-19
5.087904567e-19
5.137366742e-19
5.188871117e-19
5.242484962e-19
5.29827685e-19
5.356316646e-19
5.416675485e-19
5.479425749e-19
5.544641041e-19
5.612396162e-19
5.682767081e-19
5.7558309e-19
5.831665824e-19
5.910351121e-19
5.99196709e-19
6.076595012e-19
6.164317113e-19
6.255216519e-19
6.349377205e-19
6.446883948e-19
6.547822277e-19
6.652278417e-19
6.760339237e-19
6.872092191e-19
6.987625262e-19
7.1070269e-19
7.230385964e-19
7.357791655e-19
7.489333459e-19
7.625101076e-19
7.765184362e-19
7.909673258e-19
8.058657727e-19
8.212227689e-19
8.370472951e-19
8.533483147e-19
8.701347669e-19
8.874155606e-19
9.051995675e-19
9.234956169e-19
9.423124886e-19
9.616589078e-19
9.815435393e-19
1.001974982e-18
1.022961764e-18
1.044512337e-18
1.066635073e-18
1.089338261e-18
1.1126301e-18
1.136518699e-18
1.161012073e-18
1.186118141e-18
1.211844723e-18
1.238199542e-18
1.265190222e-18
1.292824285e-18
1.321109157e-18
1.350052168e-18
1.379660552e-18
1.409941454e-18
1.440901932e-18
1.472548961e-18
1.504889443e-18
1.537930208e-18
1.571678028e-18
1.606139622e-18
1.641321669e-18
1.677230817e-18
1.713873696e-18
1.751256933e-18
1.789387166e-18
1.828271062e-18
1.86791533e-18
1.908326747e-18
1.949512172e-18
1.991478574e-18
2.034233049e-18
2.077782851e-18
2.122135415e-18
2.167298388e-18
2.213279656e-18
2.260087377e-18
2.307730016e-18
2.356216378e-18
2.405555646e-18
2.455757419e-18
2.506831754e-18
2.558789209e-18
2.611640887e-18
2.66539848e-18
2.720074324e-18
2.775681443e-18
2.832233608e-18
2.889745387e-18
2.948232206e-18
3.007710404e-18
3.068197302e-18
3.12971126e-18
3.192271745e-18
3.255899403e-18
3.320616127e-18
3.386445131e-18
3.453411027e-18
3.521539904e-18
3.590859407e-18
3.661398822e-18
3.733189164e-18
3.806263264e-18
3.880655861e-18
3.956403699e-18
4.033545621e-18
4.112122675e-18
4.192178212e-18
4.273757996e-18
4.356910312e-18
4.441686082e-18
4.528138978e-18
4.616325544e-18
4.706305318e-18
4.798140962e-18
4.891898387e-18
4.987646893e-18
5.085459307e-18
5.185412122e-18
5.287585652e-18
5.392064179e-18
5.498936128e-18
5.608294179e-18
5.720235522e-18
5.834861976e-18
5.952280127e-18
6.072601568e-18
6.195943071e-18
6.322426791e-18
6.452180473e-18
6.585337662e-18
6.72203792e-18
6.862427045e-18
7.006657302e-18
7.154887659e-18
7.307284037e-18
7.464019579e-18
7.625274859e-18
7.791238257e-18
7.962106216e-18
8.138083581e-18
8.319383896e-18
8.506229817e-18
8.698853489e-18
8.897496879e-18
9.1024122e-18
9.313862378e-18
9.532121543e-18
9.757475553e-18
9.990222556e-18
1.023067361e-17
1.047915333e-17
1.073600068e-17
1.10015697e-17
1.12762305e-17
1.156037018e-17
1.185439398e-17
1.215872657e-17
1.247381339e-17
1.280012234e-17
1.313814554e-17
1.348840147e-17
1.385143733e-17
1.422783179e-17
1.461819821e-17
1.502318829e-17
1.544349635e-17
1.587986431e-17
1.633308748e-17
1.680402138e-17
1.729358964e-17
1.780279334e-17
1.833272196e-17
1.888456626e-17
1.945963343e-17
2.005936496e-17
2.068535778e-17
2.133938909e-17
2.202344588e-17
2.273975967e-17
2.34908477e-17
2.42795617e-17
2.510914553e-17
2.598330362e-17
2.690628189e-17
2.788296379e-17
2.891898409e-17
3.002086382e-17
3.119617028e-17
3.245370683e-17
3.380373805e-17
3.525825685e-17
3.683130132e-17
3.853933076e-17
4.040167186e-17
4.244104815e-17
4.468420831e-17
4.716267182e-17
4.991361388e-17
5.298091568e-17
5.641641081e-17
6.028136462e-17
6.464823e-17
6.960273123e-17
7.524633723e-17
8.169919704e-17
8.910362391e-17
9.762823041e-17
1.074728366e-16
1.188742953e-16
1.321134063e-16
1.475231234e-16
1.654982948e-16
1.865072259e-16
2.111054028e-16
2.399517839e-16
2.738281384e-16
3.136620025e-16
3.605539338e-16
4.158098675e-16
4.80979533e-16
5.579020705e-16
6.487602e-16
7.56144553e-16
8.831300844e-16
1.033366841e-15
1.211187804e-15
1.421737039e-15
1.671122002e-15
1.966594606e-15
2.316766518e-15
2.731865248e-15
3.22403884e-15
3.807718533e-15
4.500050583e-15
5.321410684e-15
6.296017081e-15
7.452661746e-15
8.825582873e-15
1.045550678e-14
1.239089302e-14
1.468942374e-14
1.74197867e-14
2.06638124e-14
2.451903828e-14
2.910178962e-14
3.455088603e-14
4.10321077e-14
4.874358576e-14
5.792231968e-14
6.885207248e-14
8.187295487e-14
9.739308497e-14
1.159028066e-13
1.379920702e-13
1.643717351e-13
1.958997479e-13
2.336134048e-13
2.78769224e-13
3.328923704e-13
3.978381016e-13
4.758683884e-13
5.697477382e-13
6.828633831e-13
8.193764514e-13
9.844126203e-13
1.184303166e-12
1.426890442e-12
1.721915795e-12
2.081513059e-12
2.520837253e-12
3.058866391e-12
3.719424713e-12
4.532488724e-12
5.535853517e-12
6.777256607e-12
8.317080138e-12
1.023177997e-11
1.261822162e-11
1.559913738e-11
1.93299542e-11
2.400727557e-11
2.987932654e-11
3.725867913e-11
4.653754753e-11
5.820584002e-11
7.287191502e-11
9.128550162e-11
1.143613493e-10
1.432006504e-10
1.791048919e-10
2.235733669e-10
2.782711987e-10
3.449501221e-10
4.25301373e-10
5.207227866e-10
6.319969663e-10
7.589117881e-10
8.999122436e-10
1.051940757e-09
1.210655948e-09
1.371133641e-09
1.528889258e-09
1.680734729e-09
1.825039147e-09
1.961781056e-09
2.09377497e-09
2.230542558e-09
2.392599068e-09
2.617314952e-09
2.959657531e-09
3.498310658e-09
4.327897296e-09
5.437120538e-09
6.923496388e-09
8.848199857e-09
1.120920494e-08
1.391609442e-08
1.679198056e-08
1.964565034e-08
2.237978767e-08
2.506667366e-08
2.794842635e-08
3.144237583e-08
3.587995599e-08
4.176037028e-08
4.950297485e-08
5.953123762e-08
7.176017743e-08
8.607375535e-08
1.018983996e-07
1.18584402e-07
1.347329397e-07
1.488971188e-07
1.59817374e-07
1.665933452e-07
1.68734775e-07
1.661641759e-07
1.592037636e-07
1.486073967e-07
1.352774383e-07
1.204528293e-07
1.051235301e-07
9.016621323e-08
7.620933696e-08
6.363569143e-08
5.255329755e-08
4.296048618e-08
3.486396752e-08
2.812022337e-08
2.256821111e-08
1.804644489e-08
1.43853999e-08
1.144272614e-08
9.08832828e-09
7.205800138e-09
5.721855231e-09
4.539981236e-09
3.594507257e-09
2.84596185e-09
2.253610802e-09
1.784969173e-09
1.414243585e-09
1.120988917e-09
8.890949003e-10
7.055753806e-10
5.603608749e-10
4.454173012e-10
3.543931378e-10
2.822699323e-10
2.250843654e-10
1.797074287e-10
1.436692317e-10
1.150202184e-10
9.222138245e-11
7.405752431e-11
5.956878677e-11
4.799665523e-11
3.874139123e-11
3.132849095e-11
2.538226095e-11
2.060500186e-11
1.676060878e-11
1.36616487e-11
1.115917496e-11
9.134695673e-12
7.493837882e-12
6.161346563e-12
5.077134846e-12
4.193162355e-12
3.470966192e-12
2.879706539e-12
2.39461826e-12
1.995783036e-12
1.667154721e-12
1.395784875e-12
1.171206707e-12
9.849444503e-13
8.301221531e-13
7.01151364e-13
5.934814572e-13
5.033997694e-13
4.278713823e-13
3.644104956e-13
3.109770077e-13
2.65893233e-13
2.27776726e-13
1.954860104e-13
1.680766575e-13
1.447656806e-13
1.249026196e-13
1.079460169e-13
9.344424442e-14
8.101984861e-14
7.035674419e-14
6.118971825e-14
5.329581218e-14
4.648723181e-14
4.060550374e-14
3.551664978e-14
3.110719447e-14
2.728085545e-14
2.395579516e-14
2.106233391e-14
1.854104363e-14
1.634115582e-14
1.441922965e-14
1.273803558e-14
1.126561786e-14
9.974506074e-15
8.841050758e-15
7.844862592e-15
6.968338258e-15
6.196258885e-15
5.515449461e-15
4.914489417e-15
4.383466365e-15
3.91376624e-15
3.497894117e-15
3.129321096e-15
2.802353194e-15
2.512018971e-15
2.25397304e-15
2.024413095e-15
1.820008592e-15
1.637839196e-15
1.47534164e-15
1.330263842e-15
1.200625244e-15
1.084682412e-15
9.808992495e-16
8.879210728e-16
8.045521437e-16
7.297360964e-16
6.625388809e-16
6.021339119e-16
5.477890835e-16
4.988554625e-16
4.547573715e-16
4.149837116e-16
3.790803612e-16
3.466435231e-16
3.173138607e-16
2.907713833e-16
2.667309218e-16
2.449381496e-16
2.251660755e-16
2.072119772e-16
1.908946764e-16
1.760521142e-16
1.625392612e-16
1.502262211e-16
1.389965887e-16
1.287459562e-16
1.193806352e-16
1.108164828e-16
1.029778957e-16
9.579688079e-17
8.921225013e-17
8.316891844e-17
7.761725707e-17
7.251251339e-17
6.781431951e-17
6.348623428e-17
5.949532637e-17
5.581184136e-17
5.240886601e-17
4.92620314e-17
4.634927107e-17
4.365058709e-17
4.114784749e-17
3.88245955e-17
3.666588988e-17
3.465814822e-17
3.278902403e-17
3.10472836e-17
2.942270355e-17
2.790596362e-17
2.648857403e-17
2.51627835e-17
2.392151965e-17
2.275832003e-17
2.166727581e-17
2.064298554e-17
1.968050142e-17
1.877529128e-17
1.79232026e-17
1.712042818e-17
1.636346733e-17
1.564910655e-17
1.497439476e-17
1.433661437e-17
1.373326238e-17
1.316203664e-17
1.262081174e-17
1.210762746e-17
1.16206724e-17
1.115827419e-17
1.07188881e-17
1.030107978e-17
9.903524803e-18
9.524994343e-18
9.164349046e-18
8.820529989e-18
8.492555535e-18
8.179512562e-18
7.88054983e-18
7.594876691e-18
7.321753099e-18
7.060493149e-18
6.810454322e-18
6.571036868e-18
6.341679831e-18
6.121859236e-18
5.911084664e-18
5.70889545e-18
5.514860152e-18
5.328574255e-18
5.149658771e-18
4.977756242e-18
4.812531238e-18
4.653666871e-18
4.500866322e-18
4.353848915e-18
4.212347865e-18
4.076114807e-18
3.944916167e-18
3.818528489e-18
3.696740007e-18
3.579350958e-18
3.466172554e-18
3.357026074e-18
3.251741914e-18
3.150159817e-18
3.052127048e-18
2.95749796e-18
2.866135249e-18
2.777907892e-18
2.69268981e-18
2.610363162e-18
2.530814314e-18
2.453936032e-18
2.379624744e-18
2.307782277e-18
2.238315471e-18
2.171134484e-18
2.106154407e-18
2.043293928e-18
1.982474082e-18
1.923620791e-18
1.866662239e-18
1.811529918e-18
1.758158235e-18
1.7064855e-18
1.656450553e-18
1.607995456e-18
1.561065061e-18
1.515607004e-18
1.471569504e-18
1.428903994e-18
1.387562626e-18
1.347499991e-18
1.308673385e-18
1.271040921e-18
1.234562772e-18
1.199200302e-18
1.164915499e-18
1.131673516e-18
1.099439717e-18
1.068180314e-18
1.037863679e-18
1.008459347e-18
9.799370968e-19
9.522688826e-19
9.254271225e-19
8.993852173e-19
8.741169863e-19
8.495982275e-19
8.258053075e-19
8.027149669e-19
7.803049296e-19
7.58553664e-19
7.374404809e-19
7.16945516e-19
6.970493882e-19
6.777329156e-19
6.589792327e-19
6.407709304e-19
6.230909639e-19
6.059224671e-19
5.892497634e-19
5.730583238e-19
5.573330253e-19
5.420598527e-19
5.272247871e-19
5.128148999e-19
4.9881715e-19
4.852185991e-19
4.720076717e-19
4.59172699e-19
4.467027798e-19
4.345866238e-19
4.228137289e-19
4.113737465e-19
4.002570071e-19
3.894536857e-19
3.789547942e-19
3.687506351e-19
3.588332839e-19
3.491942433e-19
3.398251756e-19
3.307185864e-19
3.21866099e-19
3.132605908e-19
3.048944969e-19
2.967613583e-19
2.888542544e-19
2.811664762e-19
2.736917688e-19
2.664240986e-19
2.593573198e-19
2.524860415e-19
2.458042535e-19
2.393067459e-19
2.32988033e-19
2.268427841e-19
2.208666068e-19
2.15054034e-19
2.094008766e-19
2.039023281e-19
1.985539818e-19
1.933520988e-19
1.882921327e-19
1.833697121e-19
1.785813809e-19
1.739234714e-19
1.693920068e-19
1.649835948e-19
1.606944813e-19
1.565215261e-19
1.524615914e-19
1.485113521e-19
1.446676482e-19
1.409273951e-19
1.372883775e-19
1.33747469e-19
1.303018686e-19
1.269485723e-19
1.236855607e-19
1.205099667e-19
1.174196601e-19
1.144120171e-19
1.114849873e-19
1.086361274e-19
1.058634961e-19
1.031648123e-19
1.005382602e-19
9.798158011e-20
9.549293172e-20
9.307063751e-20
9.071270635e-20
8.84172398e-20
8.618251487e-20
8.400721121e-20
8.188953793e-20
7.982813722e-20
7.782116941e-20
7.586739184e-20
7.396510617e-20
7.211304882e-20
7.030987592e-20
6.855430462e-20
6.684487436e-20
6.518038433e-20
6.355965224e-20
6.198148767e-20
6.044467664e-20
5.894812417e-20
5.74908255e-20
5.607176926e-20
5.468997064e-20
5.334433489e-20
5.20338654e-20
5.075774289e-20
4.951490186e-20
4.830452091e-20
4.712584615e-20
4.597776656e-20
4.485959177e-20
4.377035922e-20
4.270963207e-20
4.167653967e-20
4.067036205e-20
3.969033138e-20
3.873558678e-20
3.780554468e-20
3.689966609e-20
3.601726287e-20
3.515764755e-20
3.432017471e-20
3.350430455e-20
3.270965776e-20
3.193550041e-20
3.118129338e-20
3.044654326e-20
2.973066244e-20
2.903337831e-20
2.835416783e-20
2.769248586e-20
2.704784335e-20
2.641969987e-20
2.580772986e-20
2.52113865e-20
2.463033388e-20
2.406413193e-20
2.35124263e-20
2.297502296e-20
2.245131023e-20
2.194109642e-20
2.144381765e-20
2.095915734e-20
2.048683206e-20
2.002678363e-20
1.957856003e-20
1.914189005e-20
1.871612897e-20
1.8301207e-20
1.78969134e-20
1.750282028e-20
1.711874796e-20
1.674447804e-20
1.637974183e-20
1.602436189e-20
1.567799351e-20
1.534037262e-20
1.501138228e-20
1.469065072e-20
1.437792827e-20
1.407325436e-20
1.377636208e-20
1.348693143e-20
1.320481973e-20
1.292991017e-20
1.266198324e-20
1.240079649e-20
1.21461333e-20
1.189794453e-20
1.165606093e-20
1.142024928e-20
1.119043174e-20
1.096638685e-20
1.074796714e-20
1.053503804e-20
1.032751675e-20
1.01251842e-20
9.928018559e-21
9.73581976e-21
9.548401936e-21
9.365656654e-21
9.187489201e-21
9.01381134e-21
8.844519377e-21
8.679405583e-21
8.518466452e-21
8.361500401e-21
8.208484773e-21
8.059388412e-21
7.914008506e-21
7.772224212e-21
7.633958739e-21
7.499116943e-21
7.367705125e-21
7.239672656e-21
7.114819779e-21
6.99305494e-21
6.874272635e-21
6.75845746e-21
6.645523515e-21
6.535422649e-21
6.428161797e-21
6.323515541e-21
6.221506747e-21
6.121956349e-21
6.024872383e-21
5.93012646e-21
5.8378313e-21
5.74782945e-21
5.660097217e-21
5.574516635e-21
5.491065175e-21
5.409599447e-21
5.33020847e-21
5.252735092e-21
5.177228356e-21
5.103574419e-21
5.031776828e-21
4.961751309e-21
4.893448721e-21
4.82680715e-21
4.761763401e-21
4.698353224e-21
4.636463424e-21
4.576103871e-21
4.517280499e-21
4.459907926e-21
4.403907286e-21
4.349321571e-21
4.296062983e-21
4.244017351e-21
4.193307107e-21
4.143843306e-21
4.095548694e-21
4.048379343e-21
4.002378178e-21
3.957509178e-21
3.913709916e-21
3.871008059e-21
3.829313061e-21
3.788526757e-21
3.748737625e-21
3.709966236e-21
3.672056804e-21
3.635026323e-21
3.598888706e-21
3.563510789e-21
3.528978852e-21
3.495246429e-21
3.462255258e-21
3.430053755e-21
3.398516147e-21
3.367649993e-21
3.33745154e-21
3.307882464e-21
3.278868356e-21
3.250485287e-21
3.222692435e-21
3.195438196e-21
3.168721728e-21
3.142568223e-21
2.933900447e-21
2.714029479e-21
2.560342141e-21
2.452786803e-21
2.378577448e-21
2.327757518e-21
2.29466949e-21
2.274460369e-21
2.264708727e-21
2.262848351e-21
2.266552899e-21
2.275606212e-21
2.288834258e-21
2.305864338e-21
2.326333396e-21
2.349852396e-21
2.376643363e-21
2.406587671e-21
2.439641659e-21
2.476000496e-21
2.515606465e-21
2.558557579e-21
2.605161464e-21
2.655430002e-21
2.709571254e-21
2.767772744e-21
2.830209769e-21
2.897105657e-21
2.968652959e-21
3.0450792e-21
3.126583555e-21
3.213390693e-21
3.305743459e-21
3.403841847e-21
3.507901607e-21
3.618118707e-21
3.734714099e-21
3.857846939e-21
3.987681367e-21
4.124344591e-21
4.267939487e-21
4.418528696e-21
4.576135462e-21
4.740737024e-21
4.912249426e-21
5.09054127e-21
5.275414826e-21
5.466581905e-21
5.663731949e-21
5.866438359e-21
6.074211299e-21
6.286501341e-21
6.502666138e-21
6.72200381e-21
6.943772274e-21
7.167121149e-21
7.391219519e-21
7.615132926e-21
7.837969902e-21
8.058765114e-21
8.276612496e-21
8.490571149e-21
8.699778004e-21
8.903384307e-21
9.100610742e-21
9.290751966e-21
9.473173378e-21
9.647335306e-21
9.812792098e-21
9.969194427e-21
1.011629733e-20
1.025395242e-20
1.038211083e-20
1.050081849e-20
1.06102061e-20
1.07104818e-20
1.080192379e-20
1.088488253e-20
1.095974413e-20
1.102694622e-20
1.108694618e-20
1.114023637e-20
1.118730657e-20
1.122866225e-20
1.126479227e-20
1.12961827e-20
1.132330123e-20
1.134659157e-20
1.136647781e-20
1.13833524e-20
1.139757925e-20
1.140949449e-20
1.141940148e-20
1.142757518e-20
1.143426082e-20
1.143967782e-20
1.144401734e-20
1.144744814e-20
1.145011649e-20
1.145214855e-20
1.145365284e-20
1.145472192e-20
1.14554346e-20
1.145585744e-20
1.14560468e-20
1.145605006e-20
1.145590699e-20
1.145565118e-20
1.145531096e-20
1.145490953e-20
1.145446694e-20
1.145399956e-20
1.145352133e-20
1.145304327e-20
1.145257483e-20
1.145212319e-20
1.145169389e-20
1.145129109e-20
1.145091749e-20
1.145057441e-20
1.145026229e-20
1.14499804e-20
1.144972723e-20
1.144950065e-20
1.144929792e-20
1.144911591e-20
1.144895136e-20
1.144880078e-20
1.144866083e-20
1.14485283e-20
1.144840025e-20
1.144827417e-20
1.14481478e-20
1.144801951e-20
1.1447888e-20
1.144775267e-20
1.144761298e-20
1.144746914e-20
1.144732167e-20
1.144717128e-20
1.144701879e-20
1.144686551e-20
1.144671253e-20
1.144656121e-20
1.144641245e-20
1.144626746e-20
1.144612718e-20
1.144599252e-20
1.144586408e-20
1.144574223e-20
1.144562713e-20
1.144551896e-20
1.144541767e-20
1.14453229e-20
1.14452344e-20
1.144515173e-20
1.144507451e-20
1.144500249e-20
1.14449346e-20
1.144487086e-20
1.144481043e-20
1.144475325e-20
1.144469866e-20
1.144464652e-20
1.144459678e-20
1.144454871e-20
1.144450264e-20
1.144445823e-20
1.144441534e-20
1.144437422e-20
1.144433483e-20
1.144429695e-20
1.144426088e-20
1.144422638e-20
1.144419416e-20
1.144416364e-20
1.144413512e-20
1.144410889e-20
1.144408496e-20
1.144406348e-20
1.144404478e-20
1.144402839e-20
1.144401488e-20
1.144400419e-20
1.144399645e-20
1.144399174e-20
1.144398979e-20
1.144399101e-20
1.144399512e-20
1.1444002e-20
1.144401189e-20
1.144402429e-20
1.14440392e-20
1.144405643e-20
1.144407572e-20
1.14440969e-20
1.144411955e-20
1.14441435e-20
1.144416845e-20
1.144419394e-20
1.144421984e-20
1.144424549e-20
1.144427113e-20
1.144429593e-20
1.144431993e-20
1.144434266e-20
1.144436399e-20
1.14443836e-20
1.144440135e-20
1.144441705e-20
1.144443062e-20
1.144444185e-20
1.144445074e-20
1.144445727e-20
1.144446127e-20
1.144446285e-20
1.144446203e-20
1.144445887e-20
1.144445351e-20
1.144444598e-20
1.144443643e-20
1.144442498e-20
1.144441178e-20
1.144439697e-20
1.144438074e-20
1.144436321e-20
1.144434459e-20
1.144432498e-20
1.144430458e-20
1.144428359e-20
1.14442621e-20
1.144424027e-20
1.14442182e-20
1.144419622e-20
1.144417418e-20
1.144415235e-20
1.144413078e-20
1.14441096e-20
1.144408887e-20
1.14440687e-20
1.144404907e-20
1.144403003e-20
1.144401187e-20
1.144399412e-20
1.144397724e-20
1.14439613e-20
1.144394625e-20
1.144393191e-20
1.144391914e-20
1.144390896e-20
)
;

boundaryField
{
    inlet
    {
        type            fixedValue;
        value           uniform 0;
    }
    outlet
    {
        type            zeroGradient;
    }
    wall
    {
        type            empty;
    }
}


// ************************************************************************* //
