/*--------------------------------*- C++ -*----------------------------------*\
  =========                 |
  \\      /  F ield         | OpenFOAM: The Open Source CFD Toolbox
   \\    /   O peration     | Website:  https://openfoam.org
    \\  /    A nd           | Version:  7
     \\/     M anipulation  |
\*---------------------------------------------------------------------------*/
FoamFile
{
    version     2.0;
    format      ascii;
    class       volScalarField;
    location    "0.000558243009";
    object      CH3CHCO_0;
}
// * * * * * * * * * * * * * * * * * * * * * * * * * * * * * * * * * * * * * //

dimensions      [0 0 0 0 0 0 0];

internalField   nonuniform List<scalar> 
1500
(
3.291041184e-15
1.284658857e-14
2.64700459e-14
3.964542307e-14
4.940008004e-14
5.530957355e-14
5.835400782e-14
5.972012652e-14
6.026315429e-14
6.045691912e-14
6.051967508e-14
6.053829761e-14
6.054340141e-14
6.054470212e-14
6.054501218e-14
6.054508166e-14
6.054509636e-14
6.054509931e-14
6.054509987e-14
6.054509998e-14
6.054509999e-14
6.05451e-14
6.05451e-14
6.05451e-14
6.05451e-14
6.05451e-14
6.05451e-14
6.05451e-14
6.05451e-14
6.05451e-14
6.05451e-14
6.05451e-14
6.05451e-14
6.05451e-14
6.05451e-14
6.05451e-14
6.05451e-14
6.05451e-14
6.05451e-14
6.05451e-14
6.05451e-14
6.05451e-14
6.05451e-14
6.05451e-14
6.05451e-14
6.05451e-14
6.05451e-14
6.05451e-14
6.05451e-14
6.05451e-14
6.05451e-14
6.05451e-14
6.05451e-14
6.05451e-14
6.05451e-14
6.05451e-14
6.05451e-14
6.05451e-14
6.05451e-14
6.05451e-14
6.05451e-14
6.05451e-14
6.05451e-14
6.05451e-14
6.05451e-14
6.05451e-14
6.05451e-14
6.05451e-14
6.05451e-14
6.05451e-14
6.05451e-14
6.05451e-14
6.05451e-14
6.05451e-14
6.05451e-14
6.05451e-14
6.05451e-14
6.05451e-14
6.05451e-14
6.05451e-14
6.05451e-14
6.05451e-14
6.05451e-14
6.05451e-14
6.05451e-14
6.05451e-14
6.05451e-14
6.05451e-14
6.05451e-14
6.05451e-14
6.05451e-14
6.05451e-14
6.05451e-14
6.05451e-14
6.05451e-14
6.05451e-14
6.05451e-14
6.05451e-14
6.05451e-14
6.05451e-14
6.05451e-14
6.05451e-14
6.05451e-14
6.05451e-14
6.05451e-14
6.05451e-14
6.05451e-14
6.05451e-14
6.05451e-14
6.05451e-14
6.05451e-14
6.05451e-14
6.05451e-14
6.05451e-14
6.05451e-14
6.05451e-14
6.05451e-14
6.05451e-14
6.05451e-14
6.05451e-14
6.05451e-14
6.05451e-14
6.05451e-14
6.05451e-14
6.05451e-14
6.05451e-14
6.05451e-14
6.05451e-14
6.05451e-14
6.05451e-14
6.05451e-14
6.05451e-14
6.05451e-14
6.05451e-14
6.05451e-14
6.05451e-14
6.05451e-14
6.05451e-14
6.05451e-14
6.05451e-14
6.05451e-14
6.05451e-14
6.05451e-14
6.05451e-14
6.05451e-14
6.05451e-14
6.05451e-14
6.05451e-14
6.05451e-14
6.05451e-14
6.05451e-14
6.05451e-14
6.05451e-14
6.05451e-14
6.05451e-14
6.05451e-14
6.05451e-14
6.05451e-14
6.05451e-14
6.05451e-14
6.05451e-14
6.05451e-14
6.05451e-14
6.05451e-14
6.05451e-14
6.05451e-14
6.05451e-14
6.05451e-14
6.05451e-14
6.05451e-14
6.05451e-14
6.05451e-14
6.05451e-14
6.05451e-14
6.05451e-14
6.05451e-14
6.05451e-14
6.05451e-14
6.05451e-14
6.05451e-14
6.05451e-14
6.05451e-14
6.05451e-14
6.05451e-14
6.05451e-14
6.05451e-14
6.05451e-14
6.05451e-14
6.05451e-14
6.05451e-14
6.05451e-14
6.05451e-14
6.05451e-14
6.05451e-14
6.05451e-14
6.05451e-14
6.05451e-14
6.05451e-14
6.05451e-14
6.05451e-14
6.05451e-14
6.05451e-14
6.05451e-14
6.05451e-14
6.05451e-14
6.05451e-14
6.05451e-14
6.05451e-14
6.05451e-14
6.05451e-14
6.05451e-14
6.05451e-14
6.05451e-14
6.05451e-14
6.05451e-14
6.05451e-14
6.05451e-14
6.05451e-14
6.05451e-14
6.05451e-14
6.05451e-14
6.05451e-14
6.05451e-14
6.05451e-14
6.05451e-14
6.05451e-14
6.05451e-14
6.05451e-14
6.05451e-14
6.05451e-14
6.05451e-14
6.05451e-14
6.05451e-14
6.05451e-14
6.05451e-14
6.05451e-14
6.054510002e-14
6.054510007e-14
6.054510028e-14
6.054510111e-14
6.054510424e-14
6.054511524e-14
6.05451515e-14
6.05452626e-14
6.054557767e-14
6.054639866e-14
6.054834321e-14
6.055245172e-14
6.055990168e-14
6.05703422e-14
6.057373201e-14
6.057478194e-14
6.05758732e-14
6.057700769e-14
6.057818686e-14
6.057941229e-14
6.058068577e-14
6.058200928e-14
6.058338497e-14
6.05848151e-14
6.058630205e-14
6.05878483e-14
6.058945645e-14
6.059112922e-14
6.059286949e-14
6.059468024e-14
6.059656463e-14
6.059852598e-14
6.060056778e-14
6.060269369e-14
6.060490756e-14
6.060721348e-14
6.060961569e-14
6.061211873e-14
6.061472731e-14
6.061744646e-14
6.062028143e-14
6.062323779e-14
6.062632141e-14
6.062953846e-14
6.063289549e-14
6.063639938e-14
6.064005743e-14
6.064387733e-14
6.06478672e-14
6.065203565e-14
6.065639175e-14
6.066094512e-14
6.066570593e-14
6.067068491e-14
6.067589346e-14
6.068134361e-14
6.068704811e-14
6.069302046e-14
6.069927494e-14
6.070582668e-14
6.071269173e-14
6.071988705e-14
6.072743062e-14
6.073534151e-14
6.07436399e-14
6.075234719e-14
6.076148603e-14
6.077108044e-14
6.078115587e-14
6.079173928e-14
6.080285925e-14
6.081454603e-14
6.082683171e-14
6.083975025e-14
6.085333764e-14
6.086763201e-14
6.088267373e-14
6.089850554e-14
6.091517272e-14
6.093272319e-14
6.095120766e-14
6.097067983e-14
6.099119648e-14
6.101281771e-14
6.103560706e-14
6.105963173e-14
6.108496277e-14
6.111167525e-14
6.113984852e-14
6.116956637e-14
6.120091731e-14
6.123399478e-14
6.12688974e-14
6.130572922e-14
6.134459999e-14
6.138562543e-14
6.142892753e-14
6.147463483e-14
6.152288271e-14
6.157381373e-14
6.162757794e-14
6.168433324e-14
6.174424566e-14
6.180748979e-14
6.187424909e-14
6.19447163e-14
6.201909381e-14
6.209759402e-14
6.218043981e-14
6.22678649e-14
6.236011429e-14
6.245744467e-14
6.25601249e-14
6.266843639e-14
6.278267362e-14
6.290314455e-14
6.303017112e-14
6.316408967e-14
6.330525148e-14
6.34540232e-14
6.361078736e-14
6.377594283e-14
6.394990534e-14
6.413310795e-14
6.432600154e-14
6.452905529e-14
6.474275717e-14
6.496761444e-14
6.520415411e-14
6.545292341e-14
6.571449024e-14
6.598944368e-14
6.627839438e-14
6.658197502e-14
6.690084073e-14
6.723566952e-14
6.758716262e-14
6.795604491e-14
6.834306528e-14
6.87489969e-14
6.917463763e-14
6.962081025e-14
7.008836272e-14
7.057816847e-14
7.109112659e-14
7.162816199e-14
7.219022557e-14
7.277829435e-14
7.339337153e-14
7.403648652e-14
7.4708695e-14
7.541107883e-14
7.614474603e-14
7.69108306e-14
7.771049243e-14
7.854491703e-14
7.941531532e-14
8.032292333e-14
8.126900183e-14
8.225483594e-14
8.328173471e-14
8.435103059e-14
8.54640789e-14
8.662225721e-14
8.782696474e-14
8.907962159e-14
9.038166802e-14
9.173456367e-14
9.313978663e-14
9.459883262e-14
9.611321396e-14
9.76844586e-14
9.931410905e-14
1.010037213e-13
1.027548637e-13
1.045691156e-13
1.064480664e-13
1.083933141e-13
1.104064639e-13
1.124891273e-13
1.146429201e-13
1.168694615e-13
1.191703724e-13
1.215472742e-13
1.240017871e-13
1.265355288e-13
1.291501128e-13
1.318471473e-13
1.346282333e-13
1.374949633e-13
1.404489198e-13
1.43491674e-13
1.466247842e-13
1.498497942e-13
1.531682325e-13
1.565816102e-13
1.600914205e-13
1.636991367e-13
1.674062117e-13
1.712140764e-13
1.751241388e-13
1.791377831e-13
1.832563687e-13
1.874812295e-13
1.918136731e-13
1.962549804e-13
2.008064049e-13
2.054691726e-13
2.102444815e-13
2.151335019e-13
2.201373759e-13
2.252572182e-13
2.304941164e-13
2.358491312e-13
2.413232974e-13
2.469176249e-13
2.526330995e-13
2.584706847e-13
2.644313227e-13
2.705159367e-13
2.767254324e-13
2.830607005e-13
2.895226192e-13
2.961120565e-13
3.028298739e-13
3.096769289e-13
3.166540791e-13
3.237621854e-13
3.310021169e-13
3.383747544e-13
3.458809958e-13
3.535217608e-13
3.612979963e-13
3.692106818e-13
3.772608359e-13
3.854495223e-13
3.937778566e-13
4.022470132e-13
4.108582328e-13
4.196128305e-13
4.285122032e-13
4.37557839e-13
4.467513255e-13
4.560943594e-13
4.655887563e-13
4.752364606e-13
4.850395563e-13
4.950002779e-13
5.051210216e-13
5.154043575e-13
5.258530419e-13
5.364700294e-13
5.472584871e-13
5.582218073e-13
5.693636222e-13
5.806878185e-13
5.921985521e-13
6.039002639e-13
6.157976961e-13
6.278959083e-13
6.40200295e-13
6.527166029e-13
6.654509494e-13
6.784098409e-13
6.916001923e-13
7.050293467e-13
7.187050958e-13
7.326357008e-13
7.468299142e-13
7.612970016e-13
7.760467649e-13
7.910895656e-13
8.064363487e-13
8.220986681e-13
8.380887118e-13
8.544193293e-13
8.711040597e-13
8.881571531e-13
9.055936139e-13
9.234292198e-13
9.416805479e-13
9.603650138e-13
9.795009022e-13
9.991074007e-13
1.019204636e-12
1.039813707e-12
1.060956723e-12
1.082656841e-12
1.104938303e-12
1.127826471e-12
1.151347876e-12
1.175530254e-12
1.200402583e-12
1.22599514e-12
1.252339545e-12
1.279468808e-12
1.30741738e-12
1.336221209e-12
1.365917801e-12
1.396546261e-12
1.428147357e-12
1.460763581e-12
1.494439219e-12
1.529220411e-12
1.565155227e-12
1.602293737e-12
1.64068809e-12
1.680392593e-12
1.7214638e-12
1.763960598e-12
1.807944306e-12
1.853478773e-12
1.90063049e-12
1.949468701e-12
2.00006553e-12
2.052496113e-12
2.106838741e-12
2.163175013e-12
2.221590013e-12
2.282172489e-12
2.345015061e-12
2.410214448e-12
2.47787172e-12
2.548092578e-12
2.620987676e-12
2.696672978e-12
2.775270169e-12
2.856907123e-12
2.94171844e-12
3.02984607e-12
3.121440034e-12
3.216659268e-12
3.315672606e-12
3.418659934e-12
3.525813562e-12
3.637339825e-12
3.753461002e-12
3.874417578e-12
4.000470953e-12
4.131906657e-12
4.26903821e-12
4.412211727e-12
4.561811442e-12
4.718266338e-12
4.882058106e-12
5.053730711e-12
5.233901901e-12
5.423277059e-12
5.622665886e-12
5.833002504e-12
6.055369687e-12
6.29102808e-12
6.541451448e-12
6.808369203e-12
7.093817723e-12
7.400202302e-12
7.730371935e-12
8.087709609e-12
8.476241337e-12
8.900767828e-12
9.367023499e-12
9.881868539e-12
1.045352088e-11
1.109183641e-11
1.180864739e-11
1.261817133e-11
1.35375048e-11
1.458721995e-11
1.579208512e-11
1.718193523e-11
1.879272314e-11
2.066778963e-11
2.285939731e-11
2.543058339e-11
2.845739744e-11
3.203160408e-11
3.626394707e-11
4.128809129e-11
4.726538311e-11
5.439059894e-11
6.289888645e-11
7.307414573e-11
8.525914828e-11
9.986775344e-11
1.173996558e-10
1.384581867e-10
1.637718002e-10
1.942200036e-10
2.308646492e-10
2.749876897e-10
3.281367289e-10
3.921799671e-10
4.693724694e-10
5.624360769e-10
6.746557498e-10
8.099956967e-10
9.732393207e-10
1.170157822e-09
1.407713265e-09
1.694303072e-09
2.040054295e-09
2.457177644e-09
2.960393216e-09
3.567442193e-09
4.299701504e-09
5.182921702e-09
6.248112138e-09
7.532601952e-09
9.081310707e-09
1.094826852e-08
1.319843266e-08
1.590985572e-08
1.917626972e-08
2.3110161e-08
2.784642291e-08
3.354668582e-08
4.040443908e-08
4.865107444e-08
5.856299681e-08
7.046996489e-08
8.476483986e-08
1.019149353e-07
1.224751734e-07
1.471032587e-07
1.765770834e-07
2.118145673e-07
2.538961142e-07
3.040898322e-07
3.638796048e-07
4.349960232e-07
5.194500847e-07
6.195694294e-07
7.380367323e-07
8.779296853e-07
1.042761809e-06
1.236523134e-06
1.463719612e-06
1.729409937e-06
2.039238398e-06
2.3994623e-06
2.816972615e-06
3.299306645e-06
3.854651786e-06
4.491839851e-06
5.220331835e-06
6.050193502e-06
6.99206265e-06
8.057109323e-06
9.25699063e-06
1.060380209e-05
1.211002757e-05
1.378849012e-05
1.565230552e-05
1.771484157e-05
1.998968332e-05
2.249060811e-05
2.523157086e-05
2.822670305e-05
3.149033056e-05
3.503702237e-05
3.888170027e-05
4.303778655e-05
4.752648269e-05
5.235303652e-05
5.756868054e-05
6.319327341e-05
6.925877756e-05
7.563526152e-05
8.243564811e-05
8.968015646e-05
9.73885128e-05
0.0001055800178
0.0001142707269
0.0001234749612
0.0001332055044
0.0001434705389
0.0001542750803
0.0001656076624
0.0001776577663
0.0001899499308
0.0002026082063
0.0002155139914
0.0002286393283
0.0002413691986
0.0002534683916
0.0002644308649
0.0002736483004
0.0002803694692
0.0002838771231
0.0002835335961
0.0002789118255
0.0002699080008
0.000256799562
0.0002401810508
0.000221092555
0.0002004270929
0.0001793589862
0.0001586633509
0.0001389912326
0.0001207750113
0.0001042586626
8.944192521e-05
7.627764067e-05
6.481309759e-05
5.492023892e-05
4.644332476e-05
3.922076596e-05
3.309490022e-05
2.791555341e-05
2.354536762e-05
1.986387964e-05
1.680293086e-05
1.422303198e-05
1.203331315e-05
1.019233812e-05
8.642816895e-06
7.337077674e-06
6.235538064e-06
5.305290138e-06
4.519228425e-06
3.853836125e-06
3.290245208e-06
2.812379124e-06
2.40675995e-06
2.062081641e-06
1.76885492e-06
1.519110722e-06
1.306152226e-06
1.124347507e-06
9.68956211e-07
8.359847111e-07
7.22065163e-07
6.243544876e-07
5.4045e-07
4.683189273e-07
4.062395024e-07
3.527517035e-07
3.066160308e-07
2.667789777e-07
2.323440855e-07
2.025476521e-07
1.767383266e-07
1.543599495e-07
1.349371059e-07
1.180629499e-07
1.033889307e-07
9.061611447e-08
7.948784496e-08
6.978353021e-08
6.13133758e-08
5.391391607e-08
4.744421795e-08
4.178265263e-08
3.682414714e-08
3.247784209e-08
2.866509317e-08
2.531776437e-08
2.237676872e-08
1.979081934e-08
1.751535945e-08
1.55116447e-08
1.374595538e-08
1.218891951e-08
1.08149305e-08
9.601645851e-09
8.529555054e-09
7.581606879e-09
6.742887566e-09
6.000342705e-09
5.34253666e-09
4.759444288e-09
4.242270456e-09
3.783293504e-09
3.375729378e-09
3.013613583e-09
2.691698552e-09
2.405364334e-09
2.150540814e-09
1.923639923e-09
1.721496504e-09
1.541316697e-09
1.380632845e-09
1.237264076e-09
1.109281806e-09
9.949795537e-10
8.928464758e-10
8.015441777e-10
7.198863613e-10
6.468209593e-10
5.814144391e-10
5.228380041e-10
4.703554555e-10
4.23312508e-10
3.811273787e-10
3.432824933e-10
3.09317172e-10
2.788211756e-10
2.514290074e-10
2.268148795e-10
2.046882632e-10
1.847899543e-10
1.668885905e-10
1.507775691e-10
1.362723157e-10
1.232078638e-10
1.114367086e-10
1.008269026e-10
9.126036577e-11
8.263138392e-11
7.484527537e-11
6.781720526e-11
6.147113113e-11
5.573886481e-11
5.05592373e-11
4.587735506e-11
4.164393741e-11
3.781472587e-11
3.434995754e-11
3.12138952e-11
2.837440803e-11
2.580259718e-11
2.347246132e-11
2.136059787e-11
1.944593578e-11
1.770949671e-11
1.613418122e-11
1.470457755e-11
1.34067903e-11
1.222828705e-11
1.115776092e-11
1.018500736e-11
9.300813668e-12
8.496859932e-12
7.765630074e-12
7.100332051e-12
6.494826179e-12
5.943560749e-12
5.441514169e-12
4.984142964e-12
4.567335005e-12
4.187367444e-12
3.840868865e-12
3.524785208e-12
3.236349087e-12
2.973052165e-12
2.732620243e-12
2.51299083e-12
2.312292899e-12
2.128828647e-12
1.961057027e-12
1.80757889e-12
1.667123579e-12
1.538536808e-12
1.420769731e-12
1.312869049e-12
1.213968081e-12
1.123278687e-12
1.040083955e-12
9.637316042e-13
8.936279945e-13
8.29232721e-13
7.700537107e-13
7.156427851e-13
6.655916395e-13
6.195282001e-13
5.771133224e-13
5.380377969e-13
5.020196349e-13
4.688016058e-13
4.381490026e-13
4.098476143e-13
3.837018851e-13
3.595332429e-13
3.371785814e-13
3.164888811e-13
2.97327956e-13
2.795713148e-13
2.631051258e-13
2.47825275e-13
2.336365103e-13
2.204516621e-13
2.08190935e-13
1.967812624e-13
1.861557194e-13
1.762529881e-13
1.670168708e-13
1.583958461e-13
1.503426652e-13
1.428139832e-13
1.357700238e-13
1.29174273e-13
1.229932001e-13
1.171960031e-13
1.117543765e-13
1.066422997e-13
1.018358431e-13
9.731299212e-14
9.305348567e-14
8.903866913e-14
8.52513599e-14
8.167572458e-14
7.829716672e-14
7.510222426e-14
7.207847575e-14
6.921445461e-14
6.649957072e-14
6.392403864e-14
6.147881201e-14
5.915552349e-14
5.694642971e-14
5.484436099e-14
5.28426752e-14
5.09352155e-14
4.91162717e-14
4.738054474e-14
4.572311419e-14
4.413940848e-14
4.262517751e-14
4.117646758e-14
3.978959841e-14
3.846114197e-14
3.718790312e-14
3.596690178e-14
3.47953566e-14
3.367066988e-14
3.259041378e-14
3.155231764e-14
3.055425625e-14
2.959423913e-14
2.867040063e-14
2.778099082e-14
2.692436714e-14
2.609898663e-14
2.530339883e-14
2.453623924e-14
2.379622323e-14
2.30821405e-14
2.23928499e-14
2.17272747e-14
2.108439819e-14
2.046325961e-14
1.986295042e-14
1.928261081e-14
1.872142653e-14
1.817862588e-14
1.7653477e-14
1.71452853e-14
1.665339108e-14
1.617716741e-14
1.571601803e-14
1.52693755e-14
1.483669947e-14
1.4417475e-14
1.401121109e-14
1.361743929e-14
1.323571234e-14
1.2865603e-14
1.250670288e-14
1.215862142e-14
1.182098487e-14
1.14934354e-14
1.117563021e-14
1.086724075e-14
1.056795195e-14
1.027746154e-14
9.995479387e-15
9.721726854e-15
9.455936252e-15
9.197850287e-15
8.947221549e-15
8.70381204e-15
8.46739272e-15
8.237743088e-15
8.014650783e-15
7.797911211e-15
7.587327191e-15
7.382708624e-15
7.183872176e-15
6.990640986e-15
6.802844383e-15
6.62031762e-15
6.442901626e-15
6.270442769e-15
6.102792627e-15
5.939807779e-15
5.781349602e-15
5.627284078e-15
5.47748161e-15
5.331816852e-15
5.190168544e-15
5.05241935e-15
4.918455716e-15
4.78816772e-15
4.661448944e-15
4.538196337e-15
4.418310097e-15
4.30169355e-15
4.188253038e-15
4.077897811e-15
3.970539926e-15
3.866094144e-15
3.764477838e-15
3.665610904e-15
3.569415672e-15
3.475816822e-15
3.384741308e-15
3.296118277e-15
3.209878998e-15
3.125956792e-15
3.044286963e-15
2.964806731e-15
2.887455173e-15
2.812173162e-15
2.738903305e-15
2.667589892e-15
2.59817884e-15
2.530617641e-15
2.464855312e-15
2.40084235e-15
2.338530681e-15
2.277873617e-15
2.218825814e-15
2.161343231e-15
2.105383085e-15
2.050903819e-15
1.997865059e-15
1.946227581e-15
1.895953276e-15
1.847005113e-15
1.799347112e-15
1.752944305e-15
1.707762713e-15
1.663769312e-15
1.620932006e-15
1.579219599e-15
1.538601768e-15
1.499049039e-15
1.460532759e-15
1.423025074e-15
1.386498906e-15
1.350927927e-15
1.316286542e-15
1.282549864e-15
1.249693694e-15
1.217694501e-15
1.186529406e-15
1.156176157e-15
1.126613117e-15
1.097819242e-15
1.069774066e-15
1.042457685e-15
1.015850738e-15
9.899343968e-16
9.646903445e-16
9.401007654e-16
9.161483292e-16
8.928161776e-16
8.700879106e-16
8.479475739e-16
8.263796461e-16
8.053690268e-16
7.849010245e-16
7.649613451e-16
7.45536081e-16
7.266117003e-16
7.081750358e-16
6.902132756e-16
6.727139526e-16
6.55664935e-16
6.390544173e-16
6.228709108e-16
6.071032352e-16
5.9174051e-16
5.767721457e-16
5.621878367e-16
5.479775527e-16
5.341315312e-16
5.206402706e-16
5.074945225e-16
4.946852852e-16
4.822037964e-16
4.700415273e-16
4.581901755e-16
4.466416595e-16
4.35388112e-16
4.244218748e-16
4.137354923e-16
4.033217066e-16
3.931734519e-16
3.832838491e-16
3.736462012e-16
3.642539879e-16
3.551008609e-16
3.461806395e-16
3.37487306e-16
3.290150009e-16
3.207580191e-16
3.127108055e-16
3.048679512e-16
2.972241891e-16
2.897743907e-16
2.825135617e-16
2.75436839e-16
2.685394868e-16
2.618168934e-16
2.552645676e-16
2.48878136e-16
2.426533392e-16
2.365860292e-16
2.306721662e-16
2.249078159e-16
2.192891465e-16
2.138124262e-16
2.084740203e-16
2.032703887e-16
1.981980834e-16
1.932537461e-16
1.884341057e-16
1.837359761e-16
1.79156254e-16
1.746919164e-16
1.703400189e-16
1.660976933e-16
1.619621456e-16
1.579306543e-16
1.540005683e-16
1.501693048e-16
1.464343482e-16
1.427932475e-16
1.392436152e-16
1.357831252e-16
1.324095117e-16
1.29120567e-16
1.259141405e-16
1.227881368e-16
1.197405146e-16
1.16769285e-16
1.138725102e-16
1.110483024e-16
1.08294822e-16
1.056102768e-16
1.029929205e-16
1.004410515e-16
9.795301203e-17
9.552718652e-17
9.316200085e-17
9.085592114e-17
8.86074527e-17
8.6415139e-17
8.42775607e-17
8.219333463e-17
8.016111287e-17
7.81795818e-17
7.624746123e-17
7.436350347e-17
7.252649252e-17
7.073524321e-17
6.898860038e-17
6.72854381e-17
6.562465887e-17
6.400519289e-17
6.242599729e-17
6.088605543e-17
5.938437619e-17
5.791999327e-17
5.649196452e-17
5.50993713e-17
5.374131781e-17
5.241693046e-17
5.112535728e-17
4.986576727e-17
4.863734988e-17
4.743931433e-17
4.627088913e-17
4.513132147e-17
4.401987669e-17
4.293583773e-17
4.18785046e-17
4.084719388e-17
3.984123817e-17
3.88599856e-17
3.790279933e-17
3.696905708e-17
3.605815061e-17
3.516948524e-17
3.430247941e-17
3.345656419e-17
3.263118284e-17
3.182579032e-17
3.103985289e-17
3.027284763e-17
2.952426204e-17
2.879359363e-17
2.808034945e-17
2.73840458e-17
2.670420775e-17
2.604036886e-17
2.539207083e-17
2.47588632e-17
2.414030312e-17
2.353595514e-17
2.294539106e-17
2.236818985e-17
2.180393767e-17
2.125222783e-17
2.071266091e-17
2.018484469e-17
1.966839398e-17
1.916292993e-17
1.866807861e-17
1.818346818e-17
1.770872376e-17
1.724345887e-17
1.678726095e-17
1.31445504e-17
9.292580822e-18
6.578418155e-18
4.658573017e-18
3.297692073e-18
2.332448078e-18
1.647979445e-18
1.162957974e-18
8.196080927e-19
5.768313556e-19
4.053869019e-19
2.844795578e-19
1.9933251e-19
1.394563735e-19
9.741394768e-20
6.793876143e-20
4.730649436e-20
3.288708465e-20
2.282591564e-20
1.581714069e-20
1.094272608e-20
7.558294581e-21
5.212283201e-21
3.588769215e-21
2.467096187e-21
1.693408295e-21
1.160610898e-21
7.942873059e-22
5.42817087e-22
3.704550373e-22
2.524916038e-22
1.718752377e-22
1.168589827e-22
7.936384988e-23
5.384264223e-23
3.649268547e-23
2.471128484e-23
1.671977191e-23
1.130439675e-23
7.63807176e-24
5.157950606e-24
3.481495122e-24
2.349024836e-24
1.584456581e-24
1.068516132e-24
7.204867215e-25
4.857915177e-25
3.275565121e-25
2.208850644e-25
1.48977098e-25
1.005014786e-25
6.78186523e-26
4.577944433e-26
3.091392546e-26
2.088402218e-26
1.411434783e-26
9.543344342e-27
6.45558814e-27
4.368824881e-27
2.957882527e-27
2.003429878e-27
1.357467372e-27
9.200837263e-28
6.237983396e-28
4.230111211e-28
2.868913868e-28
1.94582817e-28
1.319688974e-28
8.94897843e-29
6.066814289e-29
4.111306856e-29
2.784670715e-29
1.884871259e-29
1.274791111e-29
8.61347146e-30
5.813376598e-30
3.918474339e-30
2.637356415e-30
1.772182888e-30
1.188666949e-30
7.956900622e-31
5.314851793e-31
3.541932074e-31
2.354744097e-31
1.561490032e-31
1.032841749e-31
6.814966138e-32
4.486691738e-32
2.948806699e-32
1.936153464e-32
1.271767291e-32
8.374951078e-33
5.547286415e-33
3.714673983e-33
2.531482523e-33
1.770955834e-33
1.284509187e-33
9.750343113e-34
7.784312115e-34
6.545941918e-34
5.769417696e-34
5.283770342e-34
4.982802331e-34
4.79571085e-34
4.680586199e-34
4.610873277e-34
4.569833195e-34
4.544861403e-34
4.526140416e-34
4.517716394e-34
4.511418675e-34
4.5067087e-34
4.504019201e-34
4.50372939e-34
4.50339021e-34
4.502837292e-34
4.502773203e-34
4.50004312e-34
4.499828357e-34
4.50138484e-34
4.498731403e-34
4.501415887e-34
4.49938961e-34
4.498430091e-34
4.499926483e-34
4.498763262e-34
4.498576539e-34
4.498085416e-34
4.499372442e-34
4.498302519e-34
4.497098009e-34
4.496278691e-34
4.496907537e-34
4.496981563e-34
4.499794168e-34
4.498541853e-34
4.499276568e-34
4.498885819e-34
4.500490334e-34
4.499395404e-34
4.49833325e-34
4.498794853e-34
4.497179044e-34
4.495708552e-34
4.495823523e-34
4.497051928e-34
4.496059862e-34
4.496132255e-34
4.495585139e-34
4.495545109e-34
4.496485057e-34
4.498001344e-34
4.49898084e-34
4.498109814e-34
4.495496736e-34
4.496391255e-34
4.495730059e-34
4.496193279e-34
4.495729375e-34
4.495252976e-34
4.494967707e-34
4.495430098e-34
4.494407377e-34
4.496005117e-34
4.49523731e-34
4.49549633e-34
4.497609467e-34
4.497309476e-34
4.495253818e-34
4.495076881e-34
4.494131012e-34
4.494893885e-34
4.493915372e-34
4.495300284e-34
4.495313647e-34
4.495432109e-34
4.49649152e-34
4.496714959e-34
4.495545832e-34
4.495797874e-34
4.495439569e-34
4.495785552e-34
4.495236432e-34
4.49466687e-34
4.494350634e-34
4.494532157e-34
4.494284659e-34
4.496163261e-34
4.494936028e-34
4.494114959e-34
4.4947639e-34
4.494601072e-34
4.494839529e-34
4.494942401e-34
4.494050607e-34
4.495640626e-34
4.497890721e-34
4.497261525e-34
4.497669312e-34
4.496194808e-34
4.495218726e-34
4.495949745e-34
4.496413687e-34
4.495869829e-34
4.494391824e-34
4.497187758e-34
4.49751198e-34
4.494865866e-34
4.495265487e-34
4.497577429e-34
4.496158925e-34
4.494826907e-34
4.494381153e-34
4.495448216e-34
4.495402078e-34
4.494023864e-34
4.49520465e-34
4.496511552e-34
4.495597059e-34
4.494428104e-34
4.495312891e-34
4.495604386e-34
4.495957127e-34
4.495866727e-34
4.496784724e-34
4.494760844e-34
4.494995657e-34
4.496774906e-34
4.495642048e-34
4.495667279e-34
4.495532703e-34
4.495652639e-34
4.493688862e-34
4.498525657e-34
4.494405939e-34
4.495310519e-34
4.498694792e-34
4.49661899e-34
4.496375198e-34
4.494024017e-34
4.494441566e-34
4.494308405e-34
4.493955614e-34
4.497749766e-34
4.494956874e-34
4.493918515e-34
4.495161571e-34
4.496542497e-34
4.49518537e-34
4.49425181e-34
)
;

boundaryField
{
    inlet
    {
        type            fixedValue;
        value           uniform 0;
    }
    outlet
    {
        type            zeroGradient;
    }
    wall
    {
        type            empty;
    }
}


// ************************************************************************* //
