/*--------------------------------*- C++ -*----------------------------------*\
  =========                 |
  \\      /  F ield         | OpenFOAM: The Open Source CFD Toolbox
   \\    /   O peration     | Website:  https://openfoam.org
    \\  /    A nd           | Version:  7
     \\/     M anipulation  |
\*---------------------------------------------------------------------------*/
FoamFile
{
    version     2.0;
    format      ascii;
    class       volScalarField;
    location    "0.000558243009";
    object      CH3COCH2;
}
// * * * * * * * * * * * * * * * * * * * * * * * * * * * * * * * * * * * * * //

dimensions      [0 0 0 0 0 0 0];

internalField   nonuniform List<scalar> 
1500
(
1.937240916e-18
7.551069138e-18
1.554424775e-17
2.323752852e-17
2.889589042e-17
3.229762286e-17
3.403557693e-17
3.480862444e-17
3.511312248e-17
3.52207627e-17
3.52552935e-17
3.526544133e-17
3.526819526e-17
3.526889015e-17
3.526905414e-17
3.526909052e-17
3.526909814e-17
3.526909965e-17
3.526909994e-17
3.526909999e-17
3.52691e-17
3.52691e-17
3.52691e-17
3.52691e-17
3.52691e-17
3.52691e-17
3.52691e-17
3.52691e-17
3.52691e-17
3.52691e-17
3.52691e-17
3.52691e-17
3.52691e-17
3.52691e-17
3.52691e-17
3.52691e-17
3.52691e-17
3.52691e-17
3.52691e-17
3.52691e-17
3.52691e-17
3.52691e-17
3.52691e-17
3.52691e-17
3.52691e-17
3.52691e-17
3.52691e-17
3.52691e-17
3.52691e-17
3.52691e-17
3.52691e-17
3.52691e-17
3.52691e-17
3.52691e-17
3.52691e-17
3.52691e-17
3.52691e-17
3.52691e-17
3.52691e-17
3.52691e-17
3.52691e-17
3.52691e-17
3.52691e-17
3.52691e-17
3.52691e-17
3.52691e-17
3.52691e-17
3.52691e-17
3.52691e-17
3.52691e-17
3.52691e-17
3.52691e-17
3.52691e-17
3.52691e-17
3.52691e-17
3.52691e-17
3.52691e-17
3.52691e-17
3.52691e-17
3.52691e-17
3.52691e-17
3.52691e-17
3.52691e-17
3.52691e-17
3.52691e-17
3.52691e-17
3.52691e-17
3.52691e-17
3.52691e-17
3.52691e-17
3.52691e-17
3.52691e-17
3.52691e-17
3.52691e-17
3.52691e-17
3.52691e-17
3.52691e-17
3.52691e-17
3.52691e-17
3.52691e-17
3.52691e-17
3.52691e-17
3.52691e-17
3.52691e-17
3.52691e-17
3.52691e-17
3.52691e-17
3.52691e-17
3.52691e-17
3.52691e-17
3.52691e-17
3.52691e-17
3.52691e-17
3.52691e-17
3.52691e-17
3.52691e-17
3.52691e-17
3.52691e-17
3.52691e-17
3.52691e-17
3.52691e-17
3.52691e-17
3.52691e-17
3.52691e-17
3.52691e-17
3.52691e-17
3.52691e-17
3.52691e-17
3.52691e-17
3.52691e-17
3.52691e-17
3.52691e-17
3.52691e-17
3.52691e-17
3.52691e-17
3.52691e-17
3.52691e-17
3.52691e-17
3.52691e-17
3.52691e-17
3.52691e-17
3.52691e-17
3.52691e-17
3.52691e-17
3.52691e-17
3.52691e-17
3.52691e-17
3.52691e-17
3.52691e-17
3.52691e-17
3.52691e-17
3.52691e-17
3.52691e-17
3.52691e-17
3.52691e-17
3.52691e-17
3.52691e-17
3.52691e-17
3.52691e-17
3.52691e-17
3.52691e-17
3.52691e-17
3.52691e-17
3.52691e-17
3.52691e-17
3.52691e-17
3.52691e-17
3.52691e-17
3.52691e-17
3.52691e-17
3.52691e-17
3.52691e-17
3.52691e-17
3.52691e-17
3.52691e-17
3.52691e-17
3.52691e-17
3.52691e-17
3.52691e-17
3.52691e-17
3.52691e-17
3.52691e-17
3.52691e-17
3.52691e-17
3.52691e-17
3.52691e-17
3.52691e-17
3.52691e-17
3.52691e-17
3.52691e-17
3.52691e-17
3.52691e-17
3.52691e-17
3.52691e-17
3.52691e-17
3.52691e-17
3.52691e-17
3.52691e-17
3.52691e-17
3.52691e-17
3.52691e-17
3.52691e-17
3.52691e-17
3.52691e-17
3.52691e-17
3.52691e-17
3.52691e-17
3.52691e-17
3.52691e-17
3.52691e-17
3.52691e-17
3.52691e-17
3.52691e-17
3.52691e-17
3.52691e-17
3.52691e-17
3.52691e-17
3.52691e-17
3.52691e-17
3.52691e-17
3.52691e-17
3.52691e-17
3.52691e-17
3.52691e-17
3.52691e-17
3.52691e-17
3.52691e-17
3.52691e-17
3.52691e-17
3.52691e-17
3.52691e-17
3.52691e-17
3.52691e-17
3.52691e-17
3.52691e-17
3.52691e-17
3.52691e-17
3.526910001e-17
3.526910004e-17
3.526910015e-17
3.526910063e-17
3.526910254e-17
3.526910974e-17
3.526913482e-17
3.526921541e-17
3.526945178e-17
3.527007734e-17
3.527154087e-17
3.5274443e-17
3.5278777e-17
3.527998894e-17
3.528040705e-17
3.528084195e-17
3.52812945e-17
3.528176532e-17
3.528225506e-17
3.528276446e-17
3.528329433e-17
3.528384555e-17
3.528441901e-17
3.528501569e-17
3.528563658e-17
3.528628271e-17
3.528695518e-17
3.528765512e-17
3.528838372e-17
3.528914223e-17
3.528993196e-17
3.529075428e-17
3.529161062e-17
3.529250249e-17
3.529343147e-17
3.529439922e-17
3.529540747e-17
3.529645805e-17
3.529755287e-17
3.529869396e-17
3.529988342e-17
3.530112349e-17
3.530241649e-17
3.530376489e-17
3.530517128e-17
3.530663838e-17
3.530816906e-17
3.530976635e-17
3.531143343e-17
3.531317366e-17
3.531499059e-17
3.531688794e-17
3.531886967e-17
3.532093994e-17
3.532310314e-17
3.532536393e-17
3.532772723e-17
3.533019822e-17
3.53327824e-17
3.53354856e-17
3.533831396e-17
3.5341274e-17
3.534437265e-17
3.534761721e-17
3.535101544e-17
3.535457557e-17
3.535830633e-17
3.536221698e-17
3.536631734e-17
3.537061784e-17
3.537512957e-17
3.537986427e-17
3.538483446e-17
3.53900534e-17
3.539553521e-17
3.540129488e-17
3.540734837e-17
3.541371262e-17
3.542040565e-17
3.542744665e-17
3.543485599e-17
3.544265536e-17
3.545086783e-17
3.545951792e-17
3.546863175e-17
3.547823706e-17
3.548836339e-17
3.549904214e-17
3.55103067e-17
3.552219261e-17
3.553473763e-17
3.554798191e-17
3.556196816e-17
3.557674175e-17
3.559235091e-17
3.560884687e-17
3.562628408e-17
3.564472034e-17
3.566421704e-17
3.568483937e-17
3.570665647e-17
3.572974173e-17
3.575417299e-17
3.578003277e-17
3.580740856e-17
3.583639305e-17
3.586708444e-17
3.58995867e-17
3.593400988e-17
3.597047043e-17
3.60090915e-17
3.605000328e-17
3.609334336e-17
3.613925706e-17
3.618789782e-17
3.623942756e-17
3.629401709e-17
3.635184647e-17
3.641310548e-17
3.647799398e-17
3.654672239e-17
3.66195121e-17
3.669659593e-17
3.67782186e-17
3.686463716e-17
3.695612152e-17
3.705295488e-17
3.715543426e-17
3.726387094e-17
3.737859101e-17
3.749993583e-17
3.762826257e-17
3.776394466e-17
3.790737234e-17
3.805895314e-17
3.821911237e-17
3.838829365e-17
3.856695935e-17
3.875559109e-17
3.895469022e-17
3.916477828e-17
3.938639744e-17
3.962011091e-17
3.986650342e-17
4.012618156e-17
4.039977416e-17
4.06879327e-17
4.099133159e-17
4.131066849e-17
4.164666459e-17
4.200006485e-17
4.237163823e-17
4.276217784e-17
4.31725011e-17
4.360344986e-17
4.405589039e-17
4.45307135e-17
4.502883441e-17
4.555119274e-17
4.609875236e-17
4.667250122e-17
4.727345112e-17
4.790263742e-17
4.856111869e-17
4.924997636e-17
4.99703142e-17
5.072325785e-17
5.150995423e-17
5.23315709e-17
5.318929537e-17
5.408433433e-17
5.501791281e-17
5.599127334e-17
5.700567495e-17
5.806239219e-17
5.916271404e-17
6.03079428e-17
6.149939286e-17
6.27383895e-17
6.402626752e-17
6.536436996e-17
6.67540466e-17
6.819665257e-17
6.969354681e-17
7.12460905e-17
7.28556455e-17
7.452357272e-17
7.625123041e-17
7.803997252e-17
7.989114697e-17
8.180609387e-17
8.378614384e-17
8.583261618e-17
8.794681714e-17
9.013003815e-17
9.238355402e-17
9.470862125e-17
9.710647626e-17
9.957833368e-17
1.021253847e-16
1.047487955e-16
1.074497054e-16
1.102292257e-16
1.130884378e-16
1.160283923e-16
1.19050107e-16
1.221545662e-16
1.253427193e-16
1.286154797e-16
1.31973724e-16
1.354182909e-16
1.389499806e-16
1.425695541e-16
1.462777332e-16
1.500751992e-16
1.539625937e-16
1.57940518e-16
1.620095334e-16
1.661701616e-16
1.70422885e-16
1.747681476e-16
1.792063556e-16
1.837378788e-16
1.883630519e-16
1.930821755e-16
1.978955184e-16
2.028033193e-16
2.078057892e-16
2.129031135e-16
2.180954551e-16
2.233829572e-16
2.287657464e-16
2.342439364e-16
2.398176317e-16
2.454869318e-16
2.512519353e-16
2.571127448e-16
2.630694718e-16
2.691222421e-16
2.752712011e-16
2.815165201e-16
2.878584022e-16
2.942970894e-16
3.008328689e-16
3.07466081e-16
3.141971265e-16
3.210264744e-16
3.27954671e-16
3.349823481e-16
3.421102324e-16
3.493391547e-16
3.566700604e-16
3.641040193e-16
3.716422367e-16
3.792860643e-16
3.870370118e-16
3.94896759e-16
4.028671681e-16
4.109502967e-16
4.191484109e-16
4.27463999e-16
4.358997862e-16
4.444587484e-16
4.531441281e-16
4.619594495e-16
4.709085345e-16
4.799955199e-16
4.892248736e-16
4.986014126e-16
5.081303209e-16
5.17817168e-16
5.276679281e-16
5.376889993e-16
5.478872246e-16
5.582699121e-16
5.688448573e-16
5.79620363e-16
5.906052672e-16
6.018089616e-16
6.132414138e-16
6.249131942e-16
6.368355007e-16
6.490201852e-16
6.614797806e-16
6.74227527e-16
6.872774e-16
7.006441385e-16
7.143432732e-16
7.283911561e-16
7.428049902e-16
7.57602861e-16
7.728037653e-16
7.884276478e-16
8.044954343e-16
8.210290673e-16
8.380515412e-16
8.555869438e-16
8.736604938e-16
8.922985763e-16
9.115287844e-16
9.31379963e-16
9.518822528e-16
9.730671367e-16
9.949674864e-16
1.017617612e-15
1.041053312e-15
1.065311928e-15
1.0904324e-15
1.116455321e-15
1.143423001e-15
1.171379528e-15
1.200370837e-15
1.230444773e-15
1.261651168e-15
1.294041917e-15
1.327671055e-15
1.362594843e-15
1.398871859e-15
1.436563086e-15
1.475732017e-15
1.516444756e-15
1.558770133e-15
1.602779823e-15
1.648548471e-15
1.696153832e-15
1.745676919e-15
1.797202162e-15
1.850817581e-15
1.90661498e-15
1.964690153e-15
2.025143123e-15
2.088078395e-15
2.153605254e-15
2.221838097e-15
2.292896813e-15
2.366907223e-15
2.444001591e-15
2.524319229e-15
2.608007203e-15
2.695221183e-15
2.786126462e-15
2.880899185e-15
2.979727843e-15
3.082815096e-15
3.190380022e-15
3.302660865e-15
3.419918458e-15
3.54244045e-15
3.670546569e-15
3.804595179e-15
3.944991461e-15
4.092197651e-15
4.246745843e-15
4.409254045e-15
4.580446316e-15
4.761178035e-15
4.952467652e-15
5.155536583e-15
5.371859359e-15
5.603226702e-15
5.851824868e-15
6.120335469e-15
6.412061099e-15
6.731083441e-15
7.08246228e-15
7.472486015e-15
7.908987037e-15
8.401738756e-15
8.962955455e-15
9.607921584e-15
1.035578404e-14
1.123054964e-14
1.226234086e-14
1.348897676e-14
1.495796324e-14
1.67289984e-14
1.887712643e-14
2.149670761e-14
2.470641527e-14
2.865552538e-14
3.353183232e-14
3.957161107e-14
4.707215378e-14
5.640754508e-14
6.804851123e-14
8.258739325e-14
1.007695638e-13
1.235329469e-13
1.52057725e-13
1.878288516e-13
2.327146605e-13
2.890657e-13
3.598389785e-13
4.487541287e-13
5.604896524e-13
7.00929484e-13
8.77472702e-13
1.099422465e-12
1.3784743e-12
1.729328928e-12
2.170461126e-12
2.725083983e-12
3.422357674e-12
4.298904038e-12
5.400703303e-12
6.785467949e-12
8.525611751e-12
1.071196045e-11
1.345838544e-11
1.690758461e-11
2.123828695e-11
2.667422096e-11
3.349526429e-11
4.205128481e-11
5.277929518e-11
6.62246752e-11
8.306737387e-11
1.041541862e-10
1.305384134e-10
1.635284577e-10
2.0474718e-10
2.562041498e-10
3.20383247e-10
4.003484214e-10
4.998707603e-10
6.235803481e-10
7.771466861e-10
9.674916501e-10
1.203039041e-09
1.494004695e-09
1.852730795e-09
2.294067393e-09
2.835803208e-09
3.499146375e-09
4.309254101e-09
5.295807964e-09
6.493629172e-09
7.943325334e-09
9.691957611e-09
1.179371454e-08
1.431057677e-08
1.731295556e-08
2.088028754e-08
2.510156905e-08
3.007581489e-08
3.591242954e-08
4.273148229e-08
5.066388191e-08
5.985145201e-08
7.044691421e-08
8.261379508e-08
9.652628508e-08
1.123691039e-07
1.303374524e-07
1.506372438e-07
1.734859915e-07
1.991152221e-07
2.277763317e-07
2.597538726e-07
2.953937276e-07
3.351427732e-07
3.7971051e-07
4.299759441e-07
4.875270723e-07
5.534876185e-07
6.271190419e-07
6.997434743e-07
7.536043727e-07
7.556371215e-07
6.727719936e-07
5.080480305e-07
3.202080186e-07
1.764925113e-07
9.23824442e-08
4.831926788e-08
2.563184666e-08
1.388689793e-08
7.620223526e-09
4.345514499e-09
2.565280828e-09
1.577437736e-09
1.007565028e-09
6.777815307e-10
4.765635386e-10
3.485081473e-10
2.63146309e-10
2.043482178e-10
1.612330232e-10
1.280777607e-10
1.016432448e-10
8.012816776e-11
6.252245983e-11
4.809406231e-11
3.658230063e-11
2.742618223e-11
2.034328224e-11
1.492684872e-11
1.085058072e-11
7.827413673e-12
5.616256052e-12
3.994431295e-12
2.819142464e-12
1.982275189e-12
1.389983136e-12
9.721531158e-13
6.783200562e-13
4.724872346e-13
3.284887587e-13
2.276453076e-13
1.574635769e-13
1.098248319e-13
7.665737733e-14
5.320886473e-14
3.696497165e-14
2.570547223e-14
1.789274231e-14
1.246550606e-14
8.691333761e-15
6.068055901e-15
4.238234013e-15
2.962742335e-15
2.073002779e-15
1.451884361e-15
1.017941965e-15
7.145091111e-16
5.021372385e-16
3.533488484e-16
2.489936198e-16
1.757164101e-16
1.241971079e-16
8.792655702e-17
6.235495874e-17
4.429915499e-17
3.152989897e-17
2.248429619e-17
1.606534418e-17
1.150208583e-17
8.251978381e-18
5.932677544e-18
4.274330226e-18
3.086176852e-18
2.233145834e-18
1.619431516e-18
1.17695752e-18
8.572613023e-19
6.257772581e-19
4.578034366e-19
3.356515632e-19
2.466298793e-19
1.816129801e-19
1.340260232e-19
9.912191906e-20
7.346602572e-20
5.456806309e-20
4.061866754e-20
3.03004597e-20
2.265227464e-20
1.697139531e-20
1.274300675e-20
9.589187029e-21
7.231948729e-21
5.466405685e-21
4.141251497e-21
3.144528757e-21
2.393234417e-21
1.825712231e-21
1.396074144e-21
1.070101644e-21
8.222287445e-22
6.333169936e-22
4.890115477e-22
3.785243375e-22
2.937317274e-22
2.285041798e-22
1.782073747e-22
1.393302652e-22
1.092072713e-22
8.581041238e-23
6.759348864e-23
5.337506522e-23
4.225043404e-23
3.352525342e-23
2.666543319e-23
2.125921551e-23
1.698842768e-23
1.360664509e-23
1.092257007e-23
8.787354838e-24
7.084912646e-24
5.724497152e-24
4.635006938e-24
3.760604659e-24
3.057340082e-24
2.490541227e-24
2.032794479e-24
1.662377215e-24
1.362038886e-24
1.118050959e-24
9.194647917e-25
7.575306337e-25
6.252417827e-25
5.169761504e-25
4.28213816e-25
3.553139834e-25
2.953384775e-25
2.459117785e-25
2.05109805e-25
1.713713635e-25
1.434275052e-25
1.202450612e-25
1.009814233e-25
8.494826578e-26
7.158238509e-26
6.042222102e-26
5.108891849e-26
4.327102611e-26
3.671211247e-26
3.120072736e-26
2.656225082e-26
2.265226462e-26
1.935115348e-26
1.655970117e-26
1.419549284e-26
1.218997167e-26
1.04860273e-26
9.036017187e-27
7.800140896e-27
6.745102466e-27
5.843008343e-27
5.070458148e-27
4.407793507e-27
3.838476667e-27
3.348575777e-27
2.926337979e-27
2.561834847e-27
2.246667554e-27
1.973721377e-27
1.736961025e-27
1.531259785e-27
1.352256711e-27
1.196237118e-27
1.060032432e-27
9.409361661e-28
8.366333369e-28
7.451410994e-28
6.647587453e-28
5.940255464e-28
5.316851625e-28
4.766555537e-28
4.280035158e-28
3.849231026e-28
3.467173162e-28
3.127825541e-28
2.825953795e-28
2.557012561e-28
2.31704941e-28
2.102622835e-28
1.910732153e-28
1.738757515e-28
1.584408492e-28
1.445679979e-28
1.320814306e-28
1.208268662e-28
1.106687035e-28
1.01487603e-28
9.317839914e-29
8.564829636e-29
7.881530757e-29
7.260690196e-29
6.69588323e-29
6.181411622e-29
5.712215073e-29
5.283794165e-29
4.892143167e-29
4.533691456e-29
4.205252326e-29
3.903978214e-29
3.627321524e-29
3.37300028e-29
3.138967966e-29
2.923387065e-29
2.724605768e-29
2.541137459e-29
2.371642649e-29
2.214913025e-29
2.069857367e-29
1.935489081e-29
1.810915178e-29
1.695326497e-29
1.587989026e-29
1.488236208e-29
1.395462088e-29
1.30911522e-29
1.228693235e-29
1.15373801e-29
1.08383133e-29
1.018591036e-29
9.576675631e-30
9.007408491e-30
8.475175659e-30
7.977286208e-30
7.511269313e-30
7.074854085e-30
6.665951542e-30
6.28263829e-30
5.923141901e-30
5.585827595e-30
5.26918632e-30
4.971823904e-30
4.692451266e-30
4.429875578e-30
4.182992206e-30
3.950777382e-30
3.732281603e-30
3.526623616e-30
3.332984926e-30
3.150604773e-30
2.978775605e-30
2.816838923e-30
2.664181492e-30
2.520231859e-30
2.384457184e-30
2.256360343e-30
2.135477253e-30
2.02137446e-30
1.913646886e-30
1.811915763e-30
1.71582675e-30
1.625048187e-30
1.539269487e-30
1.45819969e-30
1.381566066e-30
1.309112882e-30
1.24060023e-30
1.175802961e-30
1.114509688e-30
1.056521868e-30
1.001652954e-30
9.497276089e-31
9.005809708e-31
8.540579747e-31
8.100127241e-31
7.683079083e-31
7.288142471e-31
6.914100009e-31
6.559804835e-31
6.224176357e-31
5.906196035e-31
5.604903691e-31
5.319393784e-31
5.048812285e-31
4.792353418e-31
4.549256803e-31
4.31880477e-31
4.100319773e-31
3.89316204e-31
3.696727384e-31
3.510445049e-31
3.333775811e-31
3.166210092e-31
3.007266334e-31
2.856489316e-31
2.713448652e-31
2.57773738e-31
2.448970629e-31
2.326784379e-31
2.210834262e-31
2.100794479e-31
1.996356737e-31
1.897229326e-31
1.803136093e-31
1.713815655e-31
1.629020575e-31
1.548516564e-31
1.472081788e-31
1.399506143e-31
1.330590644e-31
1.265146845e-31
1.202996209e-31
1.143969593e-31
1.08790674e-31
1.034655796e-31
9.84072869e-32
9.360215942e-32
8.903727076e-32
8.470036881e-32
8.057983991e-32
7.666467434e-32
7.294443331e-32
6.940921981e-32
6.604964827e-32
6.285681925e-32
5.982229256e-32
5.693806398e-32
5.419654077e-32
5.159052133e-32
4.911317386e-32
4.675801808e-32
4.451890623e-32
4.239000489e-32
4.036577925e-32
3.844097673e-32
3.661061403e-32
3.486996201e-32
3.321453244e-32
3.164006524e-32
3.01425176e-32
2.87180514e-32
2.73630236e-32
2.607397659e-32
2.484762732e-32
2.368085896e-32
2.257071237e-32
2.151437822e-32
2.050918884e-32
1.955261079e-32
1.864223896e-32
1.777578889e-32
1.695109149e-32
1.616608616e-32
1.541881609e-32
1.470742271e-32
1.403014062e-32
1.338529294e-32
1.277128638e-32
1.218660786e-32
1.162981947e-32
1.109955535e-32
1.05945177e-32
1.011347337e-32
9.655250803e-33
9.218736598e-33
8.802872863e-33
8.406654224e-33
8.029125204e-33
7.669377613e-33
7.326548492e-33
6.999817436e-33
6.688404725e-33
6.391569293e-33
6.108606571e-33
5.838846764e-33
5.581653195e-33
5.336420432e-33
5.102572976e-33
4.879563579e-33
4.666872024e-33
4.464003373e-33
4.270487239e-33
4.085876109e-33
3.909744591e-33
3.741687945e-33
3.581321414e-33
3.428278881e-33
3.28221215e-33
3.142789968e-33
3.009697218e-33
2.882634245e-33
2.76131579e-33
2.645470601e-33
2.534840615e-33
2.429180138e-33
2.32825553e-33
2.231844321e-33
2.139734896e-33
2.051725815e-33
1.967625447e-33
1.887251322e-33
1.81042971e-33
1.736995318e-33
1.666790831e-33
1.599666388e-33
1.535479375e-33
1.474094026e-33
1.415381059e-33
1.359217298e-33
1.305485549e-33
1.254074138e-33
1.204876768e-33
1.157792186e-33
1.112723923e-33
1.069580086e-33
1.028273177e-33
9.887197988e-34
9.508405303e-34
9.145596548e-34
8.798051038e-34
8.465081305e-34
8.146032468e-34
7.840280494e-34
7.547230584e-34
7.266315696e-34
6.996995646e-34
6.738754685e-34
6.49110191e-34
6.2535689e-34
6.025709273e-34
5.807097153e-34
5.597326464e-34
5.396009695e-34
5.202777613e-34
5.017277997e-34
4.83917468e-34
4.668146699e-34
4.503888264e-34
4.346107382e-34
4.194525439e-34
4.048876626e-34
3.908907179e-34
3.774374837e-34
3.645048372e-34
3.5207069e-34
3.401139655e-34
3.286145476e-34
3.17553217e-34
3.069115916e-34
2.966721675e-34
2.86818174e-34
2.773336181e-34
2.682032085e-34
2.594123348e-34
2.509470435e-34
2.427939913e-34
2.349404182e-34
2.273741359e-34
2.200834883e-34
2.13057326e-34
2.062849997e-34
1.997563249e-34
1.93461543e-34
1.873913288e-34
1.815367631e-34
1.758893103e-34
1.704408015e-34
1.651834114e-34
1.601096692e-34
1.552124045e-34
1.504847594e-34
1.459201706e-34
1.415123501e-34
1.372552755e-34
1.331431733e-34
1.291705144e-34
1.253320046e-34
1.21622571e-34
1.180373508e-34
1.145716849e-34
1.112211054e-34
1.07981323e-34
1.048482247e-34
1.018178745e-34
9.888648856e-35
9.605044212e-35
9.330625649e-35
9.065059149e-35
8.808024531e-35
8.559213972e-35
8.318331949e-35
8.08509466e-35
7.859229962e-35
7.640476283e-35
7.428582118e-35
7.223305938e-35
7.024415809e-35
6.831688397e-35
6.644909544e-35
6.463872818e-35
6.288379946e-35
6.118240016e-35
5.953269498e-35
5.79329159e-35
5.638136345e-35
5.487639962e-35
5.341645264e-35
5.20000037e-35
5.06255885e-35
4.929179869e-35
4.799727621e-35
4.674070953e-35
4.552083821e-35
4.433644345e-35
4.31863488e-35
4.206941929e-35
4.098455839e-35
3.993070666e-35
3.890683897e-35
3.791196557e-35
3.694512972e-35
3.600540389e-35
3.50918913e-35
3.420372115e-35
3.33400502e-35
3.250005943e-35
3.168295529e-35
3.088796741e-35
3.011434434e-35
2.936135706e-35
2.862829683e-35
2.791447222e-35
2.721920909e-35
2.654185113e-35
2.588175925e-35
2.523830895e-35
2.461089118e-35
2.399891383e-35
2.340180066e-35
2.281899168e-35
2.224994414e-35
2.16941326e-35
2.115105589e-35
2.062024e-35
2.010124552e-35
1.9593688e-35
1.555358352e-35
1.144000201e-35
8.580862231e-36
6.579576658e-36
5.172108505e-36
4.18051941e-36
3.482330435e-36
2.992202323e-36
2.650236372e-36
2.414196941e-36
2.25422854e-36
2.149222092e-36
2.084239098e-36
2.048734454e-36
2.035289475e-36
2.038714447e-36
2.055408494e-36
2.082915662e-36
2.119596196e-36
2.164403479e-36
2.216719835e-36
2.276243889e-36
2.342915495e-36
2.416850124e-36
2.498307177e-36
2.58765995e-36
2.685377661e-36
2.792013705e-36
2.908196154e-36
3.034623326e-36
3.172058727e-36
3.321329031e-36
3.483320459e-36
3.658975903e-36
3.84929134e-36
4.055310206e-36
4.278118029e-36
4.518833025e-36
4.778596006e-36
5.058557231e-36
5.35986074e-36
5.683625346e-36
6.030923321e-36
6.402755719e-36
6.800024316e-36
7.223502374e-36
7.673801265e-36
8.151338681e-36
8.656303574e-36
9.188621924e-36
9.7479274e-36
1.03335303e-35
1.094439656e-35
1.157912865e-35
1.223595572e-35
1.291273334e-35
1.360695363e-35
1.431576243e-35
1.503599372e-35
1.576420683e-35
1.649674254e-35
1.722977867e-35
1.795940199e-35
1.86816764e-35
1.939271931e-35
2.008877584e-35
2.076628996e-35
2.142197003e-35
2.20528473e-35
2.265632426e-35
2.32302118e-35
2.377275479e-35
2.428264449e-35
2.475901995e-35
2.520145665e-35
2.560994564e-35
2.598486412e-35
2.632693833e-35
2.663720046e-35
2.691694368e-35
2.716767443e-35
2.739106519e-35
2.758890773e-35
2.776307013e-35
2.791545634e-35
2.804797107e-35
2.816248814e-35
2.826082409e-35
2.834471737e-35
2.841581114e-35
2.847564148e-35
2.85256292e-35
2.856707542e-35
2.860116025e-35
2.862894438e-35
2.865137276e-35
2.86692799e-35
2.868339668e-35
2.8694358e-35
2.870271096e-35
2.870892339e-35
2.871339228e-35
2.871645216e-35
2.871838289e-35
2.871941716e-35
2.871974732e-35
2.871953151e-35
2.871889917e-35
2.871795588e-35
2.871678752e-35
2.871546376e-35
2.871404105e-35
2.8712565e-35
2.871107231e-35
2.87095924e-35
2.870814851e-35
2.870675876e-35
2.870543677e-35
2.870419229e-35
2.870303165e-35
2.87019581e-35
2.870097221e-35
2.870007217e-35
2.869925408e-35
2.869851235e-35
2.869783998e-35
2.869722895e-35
2.869667056e-35
2.869615582e-35
2.869567571e-35
2.869522161e-35
2.869478546e-35
2.869436008e-35
2.86939393e-35
2.869351813e-35
2.869309279e-35
2.869266076e-35
2.86922207e-35
2.869177243e-35
2.869131672e-35
2.869085522e-35
2.869039021e-35
2.868992447e-35
2.868946107e-35
2.868900315e-35
2.868855385e-35
2.868811606e-35
2.868769239e-35
2.868728501e-35
2.868689564e-35
2.86865255e-35
2.868617533e-35
2.868584536e-35
2.868553542e-35
2.868524492e-35
2.8684973e-35
2.868471853e-35
2.868448025e-35
2.868425675e-35
2.868404666e-35
2.868384858e-35
2.868366123e-35
2.868348341e-35
2.86833141e-35
2.86831524e-35
2.868299757e-35
2.868284905e-35
2.868270643e-35
2.868256944e-35
2.868243793e-35
2.868231188e-35
2.868219134e-35
2.868207647e-35
2.868196747e-35
2.868186459e-35
2.868176814e-35
2.868167844e-35
2.868159583e-35
2.868152065e-35
2.868145327e-35
2.868139402e-35
2.868134321e-35
2.868130112e-35
2.8681268e-35
2.868124405e-35
2.868122938e-35
2.868122406e-35
2.868122808e-35
2.86812413e-35
2.868126353e-35
2.868129447e-35
2.868133371e-35
2.868138075e-35
2.868143499e-35
2.868149573e-35
2.868156222e-35
2.868163362e-35
2.8681709e-35
2.868178745e-35
2.868186795e-35
2.868194955e-35
2.868203122e-35
2.8682112e-35
2.868219093e-35
2.868226709e-35
2.868233965e-35
2.868240779e-35
2.868247081e-35
2.868252807e-35
2.868257904e-35
2.868262325e-35
2.868266035e-35
2.868269009e-35
2.868271231e-35
2.868272693e-35
2.868273397e-35
2.868273353e-35
2.868272578e-35
2.868271098e-35
2.868268943e-35
2.86826615e-35
2.868262759e-35
2.868258815e-35
2.868254365e-35
2.868249457e-35
2.868244143e-35
2.868238474e-35
2.868232502e-35
2.868226275e-35
2.868219845e-35
2.868213257e-35
2.86820656e-35
2.868199794e-35
2.868193004e-35
2.868186225e-35
2.868179493e-35
2.868172841e-35
2.868166296e-35
2.868159885e-35
2.86815363e-35
2.86814755e-35
2.86814166e-35
2.868135975e-35
2.868130503e-35
2.868125254e-35
2.86812024e-35
2.868115482e-35
2.868111033e-35
2.868107039e-35
2.868103903e-35
)
;

boundaryField
{
    inlet
    {
        type            fixedValue;
        value           uniform 0;
    }
    outlet
    {
        type            zeroGradient;
    }
    wall
    {
        type            empty;
    }
}


// ************************************************************************* //
