/*--------------------------------*- C++ -*----------------------------------*\
  =========                 |
  \\      /  F ield         | OpenFOAM: The Open Source CFD Toolbox
   \\    /   O peration     | Website:  https://openfoam.org
    \\  /    A nd           | Version:  7
     \\/     M anipulation  |
\*---------------------------------------------------------------------------*/
FoamFile
{
    version     2.0;
    format      ascii;
    class       volScalarField;
    location    "0.000558243009";
    object      CH3COCH2_0;
}
// * * * * * * * * * * * * * * * * * * * * * * * * * * * * * * * * * * * * * //

dimensions      [0 0 0 0 0 0 0];

internalField   nonuniform List<scalar> 
1500
(
1.938612097e-18
7.555113832e-18
1.555012329e-17
2.324327585e-17
2.89001891e-17
3.230024815e-17
3.403693623e-17
3.480923576e-17
3.511336556e-17
3.522084937e-17
3.525532153e-17
3.526544963e-17
3.526819753e-17
3.526889073e-17
3.526905428e-17
3.526909055e-17
3.526909814e-17
3.526909965e-17
3.526909994e-17
3.526909999e-17
3.52691e-17
3.52691e-17
3.52691e-17
3.52691e-17
3.52691e-17
3.52691e-17
3.52691e-17
3.52691e-17
3.52691e-17
3.52691e-17
3.52691e-17
3.52691e-17
3.52691e-17
3.52691e-17
3.52691e-17
3.52691e-17
3.52691e-17
3.52691e-17
3.52691e-17
3.52691e-17
3.52691e-17
3.52691e-17
3.52691e-17
3.52691e-17
3.52691e-17
3.52691e-17
3.52691e-17
3.52691e-17
3.52691e-17
3.52691e-17
3.52691e-17
3.52691e-17
3.52691e-17
3.52691e-17
3.52691e-17
3.52691e-17
3.52691e-17
3.52691e-17
3.52691e-17
3.52691e-17
3.52691e-17
3.52691e-17
3.52691e-17
3.52691e-17
3.52691e-17
3.52691e-17
3.52691e-17
3.52691e-17
3.52691e-17
3.52691e-17
3.52691e-17
3.52691e-17
3.52691e-17
3.52691e-17
3.52691e-17
3.52691e-17
3.52691e-17
3.52691e-17
3.52691e-17
3.52691e-17
3.52691e-17
3.52691e-17
3.52691e-17
3.52691e-17
3.52691e-17
3.52691e-17
3.52691e-17
3.52691e-17
3.52691e-17
3.52691e-17
3.52691e-17
3.52691e-17
3.52691e-17
3.52691e-17
3.52691e-17
3.52691e-17
3.52691e-17
3.52691e-17
3.52691e-17
3.52691e-17
3.52691e-17
3.52691e-17
3.52691e-17
3.52691e-17
3.52691e-17
3.52691e-17
3.52691e-17
3.52691e-17
3.52691e-17
3.52691e-17
3.52691e-17
3.52691e-17
3.52691e-17
3.52691e-17
3.52691e-17
3.52691e-17
3.52691e-17
3.52691e-17
3.52691e-17
3.52691e-17
3.52691e-17
3.52691e-17
3.52691e-17
3.52691e-17
3.52691e-17
3.52691e-17
3.52691e-17
3.52691e-17
3.52691e-17
3.52691e-17
3.52691e-17
3.52691e-17
3.52691e-17
3.52691e-17
3.52691e-17
3.52691e-17
3.52691e-17
3.52691e-17
3.52691e-17
3.52691e-17
3.52691e-17
3.52691e-17
3.52691e-17
3.52691e-17
3.52691e-17
3.52691e-17
3.52691e-17
3.52691e-17
3.52691e-17
3.52691e-17
3.52691e-17
3.52691e-17
3.52691e-17
3.52691e-17
3.52691e-17
3.52691e-17
3.52691e-17
3.52691e-17
3.52691e-17
3.52691e-17
3.52691e-17
3.52691e-17
3.52691e-17
3.52691e-17
3.52691e-17
3.52691e-17
3.52691e-17
3.52691e-17
3.52691e-17
3.52691e-17
3.52691e-17
3.52691e-17
3.52691e-17
3.52691e-17
3.52691e-17
3.52691e-17
3.52691e-17
3.52691e-17
3.52691e-17
3.52691e-17
3.52691e-17
3.52691e-17
3.52691e-17
3.52691e-17
3.52691e-17
3.52691e-17
3.52691e-17
3.52691e-17
3.52691e-17
3.52691e-17
3.52691e-17
3.52691e-17
3.52691e-17
3.52691e-17
3.52691e-17
3.52691e-17
3.52691e-17
3.52691e-17
3.52691e-17
3.52691e-17
3.52691e-17
3.52691e-17
3.52691e-17
3.52691e-17
3.52691e-17
3.52691e-17
3.52691e-17
3.52691e-17
3.52691e-17
3.52691e-17
3.52691e-17
3.52691e-17
3.52691e-17
3.52691e-17
3.52691e-17
3.52691e-17
3.52691e-17
3.52691e-17
3.52691e-17
3.52691e-17
3.52691e-17
3.52691e-17
3.52691e-17
3.52691e-17
3.52691e-17
3.52691e-17
3.52691e-17
3.52691e-17
3.52691e-17
3.52691e-17
3.52691e-17
3.52691e-17
3.52691e-17
3.52691e-17
3.52691e-17
3.52691e-17
3.52691e-17
3.526910001e-17
3.526910004e-17
3.526910015e-17
3.526910063e-17
3.526910255e-17
3.526910975e-17
3.526913487e-17
3.526921558e-17
3.526945234e-17
3.527007898e-17
3.527154513e-17
3.527445258e-17
3.527879466e-17
3.528000903e-17
3.528042771e-17
3.528086341e-17
3.528131685e-17
3.528178858e-17
3.528227927e-17
3.528278963e-17
3.528332051e-17
3.528387276e-17
3.528444732e-17
3.528504513e-17
3.52856672e-17
3.528631456e-17
3.528698831e-17
3.528768959e-17
3.528841959e-17
3.528917956e-17
3.528997081e-17
3.529079471e-17
3.52916527e-17
3.52925463e-17
3.529347708e-17
3.52944467e-17
3.529545691e-17
3.529650954e-17
3.52976065e-17
3.529874982e-17
3.529994161e-17
3.530118411e-17
3.530247966e-17
3.530383072e-17
3.530523989e-17
3.53067099e-17
3.530824363e-17
3.53098441e-17
3.531151451e-17
3.531325823e-17
3.531507881e-17
3.531697999e-17
3.531896572e-17
3.532104019e-17
3.53232078e-17
3.53254732e-17
3.532784134e-17
3.53303174e-17
3.533290691e-17
3.53356157e-17
3.533844994e-17
3.534141615e-17
3.534452128e-17
3.534777265e-17
3.535117805e-17
3.535474572e-17
3.535848441e-17
3.536240341e-17
3.536651256e-17
3.537082232e-17
3.53753438e-17
3.538008879e-17
3.538506981e-17
3.539030019e-17
3.539579407e-17
3.540156648e-17
3.540763341e-17
3.541401186e-17
3.542071991e-17
3.542777676e-17
3.543520287e-17
3.544301997e-17
3.54512512e-17
3.545992114e-17
3.546905598e-17
3.547868353e-17
3.548883341e-17
3.549953711e-17
3.551082812e-17
3.552274204e-17
3.553531675e-17
3.554859252e-17
3.556261216e-17
3.557742115e-17
3.559306787e-17
3.560960367e-17
3.562708315e-17
3.564556426e-17
3.566510857e-17
3.568578141e-17
3.570765212e-17
3.573079429e-17
3.575528595e-17
3.578120984e-17
3.580865368e-17
3.58377104e-17
3.586847845e-17
3.590106208e-17
3.59355716e-17
3.597212377e-17
3.601084205e-17
3.605185697e-17
3.609530645e-17
3.614133619e-17
3.61901e-17
3.624176022e-17
3.629648805e-17
3.635446402e-17
3.641587836e-17
3.648093142e-17
3.654983412e-17
3.662280837e-17
3.670008757e-17
3.678191698e-17
3.686855429e-17
3.696027002e-17
3.705734802e-17
3.716008597e-17
3.726879589e-17
3.738380459e-17
3.750545418e-17
3.763410262e-17
3.777012416e-17
3.791390989e-17
3.80658682e-17
3.822642532e-17
3.839602578e-17
3.857513292e-17
3.876422935e-17
3.896381744e-17
3.917441977e-17
3.939657957e-17
3.963086118e-17
3.987785043e-17
4.013815508e-17
4.041240515e-17
4.070125332e-17
4.100537522e-17
4.132546978e-17
4.166225945e-17
4.201649051e-17
4.238893322e-17
4.278038203e-17
4.319165573e-17
4.36235975e-17
4.407707502e-17
4.455298048e-17
4.505223052e-17
4.557576614e-17
4.612455265e-17
4.66995794e-17
4.730185961e-17
4.793243005e-17
4.859235071e-17
4.92827044e-17
5.00045963e-17
5.075915341e-17
5.1547524e-17
5.237087699e-17
5.323040118e-17
5.412730456e-17
5.506281341e-17
5.603817148e-17
5.705463899e-17
5.811349163e-17
5.921601949e-17
6.036352591e-17
6.155732628e-17
6.279874683e-17
6.408912326e-17
6.542979942e-17
6.682212586e-17
6.826745841e-17
6.976715662e-17
7.132258223e-17
7.293509758e-17
7.460606394e-17
7.633683991e-17
7.812877964e-17
7.998323118e-17
8.190153471e-17
8.388502079e-17
8.593500859e-17
8.805280413e-17
9.02396985e-17
9.24969661e-17
9.482586289e-17
9.722762468e-17
9.97034654e-17
1.022545754e-16
1.048821199e-16
1.075872373e-16
1.103710378e-16
1.132346015e-16
1.161789778e-16
1.192051831e-16
1.223142002e-16
1.25506977e-16
1.287844253e-16
1.321474199e-16
1.355967978e-16
1.391333573e-16
1.427578577e-16
1.464710185e-16
1.502735193e-16
1.541659995e-16
1.581490584e-16
1.622232551e-16
1.663891093e-16
1.706471012e-16
1.749976726e-16
1.794412278e-16
1.839781343e-16
1.886087247e-16
1.933332976e-16
1.981521199e-16
2.030654284e-16
2.08073432e-16
2.131763146e-16
2.183742374e-16
2.236673418e-16
2.290557533e-16
2.345395842e-16
2.40118938e-16
2.45793913e-16
2.515646073e-16
2.57431123e-16
2.633935711e-16
2.694520774e-16
2.756067876e-16
2.818578733e-16
2.882055386e-16
2.946500264e-16
3.011916254e-16
3.078306778e-16
3.145675863e-16
3.214028229e-16
3.283369366e-16
3.353705627e-16
3.425044318e-16
3.497393793e-16
3.570763554e-16
3.645164354e-16
3.720608306e-16
3.797108995e-16
3.874681589e-16
3.953342967e-16
4.033111836e-16
4.114008864e-16
4.196056814e-16
4.279280677e-16
4.363707819e-16
4.449368124e-16
4.536294149e-16
4.624521277e-16
4.71408788e-16
4.805035483e-16
4.897408935e-16
4.991256585e-16
5.086630465e-16
5.183586468e-16
5.28218455e-16
5.382488914e-16
5.484568224e-16
5.588495808e-16
5.694349884e-16
5.80221374e-16
5.912176054e-16
6.024331046e-16
6.138778697e-16
6.255625038e-16
6.37498239e-16
6.496969629e-16
6.621712455e-16
6.749343662e-16
6.880003411e-16
7.013839513e-16
7.151007718e-16
7.291672001e-16
7.436004868e-16
7.584187673e-16
7.736410885e-16
7.892874485e-16
8.053788277e-16
8.219372262e-16
8.389856965e-16
8.565483881e-16
8.746505842e-16
8.933187357e-16
9.125805032e-16
9.324648021e-16
9.530018462e-16
9.742231938e-16
9.961617948e-16
1.01885204e-15
1.042329812e-15
1.066632538e-15
1.091799247e-15
1.117870625e-15
1.144889079e-15
1.172898795e-15
1.201945809e-15
1.232078073e-15
1.263345529e-15
1.295800184e-15
1.329496192e-15
1.364489935e-15
1.400840116e-15
1.438607849e-15
1.477856762e-15
1.5186531e-15
1.561065838e-15
1.605166801e-15
1.651030791e-15
1.698735726e-15
1.748362789e-15
1.799996583e-15
1.853725314e-15
1.909640974e-15
1.967839558e-15
2.028421294e-15
2.091490904e-15
2.157157901e-15
2.225536917e-15
2.296748092e-15
2.370917507e-15
2.448177705e-15
2.528668286e-15
2.612536627e-15
2.699938727e-15
2.791040232e-15
2.886017662e-15
2.985059917e-15
3.088370102e-15
3.196167776e-15
3.308691718e-15
3.426203352e-15
3.548990989e-15
3.677375106e-15
3.811714916e-15
3.95241658e-15
4.099943466e-15
4.254828995e-15
4.417692737e-15
4.589260604e-15
4.770390194e-15
4.962102626e-15
5.165622546e-15
5.382428415e-15
5.614315756e-15
5.863476713e-15
6.132600141e-15
6.424997572e-15
6.74476174e-15
7.09696612e-15
7.4879161e-15
7.925465173e-15
8.419412997e-15
8.982006516e-15
9.628570856e-15
1.037830359e-14
1.125527469e-14
1.228968534e-14
1.351945274e-14
1.499220509e-14
1.676779297e-14
1.89214506e-14
2.154777505e-14
2.476573466e-14
2.872497282e-14
3.361374143e-14
3.966888489e-14
4.71884039e-14
5.654726428e-14
6.821728786e-14
8.2792177e-14
1.010189952e-13
1.238377656e-13
1.524312747e-13
1.882877054e-13
2.332793933e-13
2.897618427e-13
3.606981953e-13
4.498156687e-13
5.618021377e-13
7.025531088e-13
8.794819362e-13
1.101909372e-12
1.381552602e-12
1.733138986e-12
2.175176018e-12
2.730916925e-12
3.429571047e-12
4.307820359e-12
5.411718513e-12
6.799067471e-12
8.542389834e-12
1.073264339e-11
1.348385931e-11
1.693892832e-11
2.12768113e-11
2.67215146e-11
3.355324731e-11
4.212227079e-11
5.286606201e-11
6.633054502e-11
8.319630153e-11
1.043108549e-10
1.307283346e-10
1.637580708e-10
2.050239432e-10
2.56536611e-10
3.207810774e-10
4.008223854e-10
5.004325879e-10
6.242424601e-10
7.779217075e-10
9.683916218e-10
1.204074217e-09
1.495181775e-09
1.8540504e-09
2.295520557e-09
2.83736658e-09
3.500775799e-09
4.310876152e-09
5.297308986e-09
6.494841278e-09
7.944008832e-09
9.691779266e-09
1.179222112e-08
1.430716332e-08
1.730682809e-08
2.087041977e-08
2.508665319e-08
3.005420684e-08
3.588208911e-08
4.268990935e-08
5.060804997e-08
5.977774008e-08
7.03510375e-08
8.249073393e-08
9.637020882e-08
1.121732857e-07
1.300941654e-07
1.503376303e-07
1.731198831e-07
1.986708789e-07
2.272400404e-07
2.591093317e-07
2.946212094e-07
3.342083814e-07
3.785905537e-07
4.285886652e-07
4.859272895e-07
5.518055224e-07
6.2566294e-07
6.983553804e-07
7.52644618e-07
7.560142247e-07
6.76150675e-07
5.152123231e-07
3.282740856e-07
1.812581815e-07
9.43097436e-08
4.926333632e-08
2.635802278e-08
1.451959762e-08
8.165045067e-09
4.778554902e-09
2.8954391e-09
1.821130789e-09
1.183747898e-09
8.028246454e-10
5.643870957e-10
4.096029632e-10
3.060571342e-10
2.340337264e-10
1.817768034e-10
1.423126403e-10
1.115196713e-10
8.698232476e-11
6.726793061e-11
5.14087646e-11
3.887039735e-11
2.900377057e-11
2.143325153e-11
1.568288531e-11
1.137832966e-11
8.197928937e-12
5.875755768e-12
4.185698955e-12
2.960137075e-12
2.086154749e-12
1.467096094e-12
1.030241368e-12
7.225293371e-13
5.065193065e-13
3.548560398e-13
2.482963219e-13
1.737529817e-13
1.223215513e-13
8.620967008e-14
6.062981129e-14
4.270851081e-14
3.012957293e-14
2.128428899e-14
1.505413822e-14
1.065952292e-14
7.55711871e-15
5.362448838e-15
3.808986349e-15
2.708231405e-15
1.927453865e-15
1.373080322e-15
9.790687535e-16
6.987581872e-16
4.991464136e-16
3.568675151e-16
2.553611447e-16
1.828783525e-16
1.310752987e-16
9.402049106e-17
6.749322065e-17
4.848726308e-17
3.485942174e-17
2.50803828e-17
1.805791643e-17
1.301128914e-17
9.381964554e-18
6.770045202e-18
4.888992275e-18
3.533337197e-18
2.55563673e-18
1.850011098e-18
1.340374762e-18
9.720153389e-19
7.055634659e-19
5.126715243e-19
3.72914697e-19
2.715670533e-19
1.980045016e-19
1.445571576e-19
1.05684134e-19
7.737979767e-20
5.674630878e-20
4.168568598e-20
3.067784422e-20
2.262050603e-20
1.671366924e-20
1.237617916e-20
9.18544623e-21
6.833860094e-21
5.097254527e-21
3.812075642e-21
2.858839274e-21
2.150135933e-21
1.621926112e-21
1.227217887e-21
9.314705629e-22
7.092498373e-22
5.417911133e-22
4.152223713e-22
3.192664786e-22
2.462923457e-22
1.906201733e-22
1.480119779e-22
1.152973806e-22
9.009827325e-23
7.062586465e-23
5.553078578e-23
4.379215578e-23
3.46353025e-23
2.747059649e-23
2.184787175e-23
1.742237638e-23
1.392927044e-23
1.116447426e-23
8.970246081e-24
7.224290343e-24
5.831508623e-24
4.717733644e-24
3.824955522e-24
3.107674008e-24
2.530102795e-24
2.064020447e-24
1.687113507e-24
1.381695284e-24
1.133712287e-24
9.319715222e-25
7.675378754e-25
6.332628601e-25
5.234151156e-25
4.333899323e-25
3.594803309e-25
2.986962094e-25
2.486211294e-25
2.072986483e-25
1.731419016e-25
1.448615276e-25
1.214080926e-25
1.01926009e-25
8.571657886e-26
7.220830229e-26
6.09329766e-26
5.150642465e-26
4.3612928e-26
3.699263191e-26
3.1431338e-26
2.675221878e-26
2.280908155e-26
1.948088364e-26
1.666725972e-26
1.428486908e-26
1.226440818e-26
1.05481638e-26
9.088006157e-27
7.843740514e-27
6.781751408e-27
5.873886042e-27
5.096533356e-27
4.429863506e-27
3.857198942e-27
3.364493646e-27
2.939901356e-27
2.573417089e-27
2.256579151e-27
1.982221088e-27
1.744264964e-27
1.537548831e-27
1.357682583e-27
1.20092734e-27
1.06409442e-27
9.444605865e-28
8.396968751e-28
7.478087477e-28
6.670856963e-28
5.960587625e-28
5.334646784e-28
4.782155645e-28
4.293732824e-28
3.861277086e-28
3.47778303e-28
3.13718453e-28
2.834221601e-28
2.564327027e-28
2.323529711e-28
2.108372171e-28
1.91584003e-28
1.74330168e-28
1.588456577e-28
1.449290905e-28
1.324039479e-28
1.211152989e-28
1.109269809e-28
1.01719167e-28
9.338626912e-29
8.583512413e-29
7.898342525e-29
7.275836322e-29
6.709544755e-29
6.193748364e-29
5.723368271e-29
5.293888774e-29
4.901289878e-29
4.541988428e-29
4.2127867e-29
3.910827455e-29
3.633554545e-29
3.378678462e-29
3.144146042e-29
2.928113892e-29
2.728925001e-29
2.545088138e-29
2.375259733e-29
2.218227851e-29
2.072898046e-29
1.938280858e-29
1.813480752e-29
1.697686292e-29
1.590161438e-29
1.49023782e-29
1.397307863e-29
1.31081868e-29
1.230266608e-29
1.155192358e-29
1.085176674e-29
1.019836469e-29
9.588213366e-30
9.018104561e-30
8.485098169e-30
7.986497185e-30
7.519825245e-30
7.082806476e-30
6.673347395e-30
6.289520543e-30
5.929549789e-30
5.591797029e-30
5.274750185e-30
4.977012344e-30
4.697291949e-30
4.434393907e-30
4.187211496e-30
3.954719093e-30
3.735965507e-30
3.530067907e-30
3.336206377e-30
3.153618862e-30
2.98159662e-30
2.819480081e-30
2.666655003e-30
2.522549018e-30
2.38662846e-30
2.258395426e-30
2.137385158e-30
2.023163538e-30
1.915324894e-30
1.813489901e-30
1.717303714e-30
1.626434206e-30
1.540570369e-30
1.459420835e-30
1.382712518e-30
1.310189333e-30
1.241611066e-30
1.176752267e-30
1.115401279e-30
1.057359312e-30
1.002439587e-30
9.50466551e-31
9.012751413e-31
8.547101022e-31
8.106253669e-31
7.688834569e-31
7.293549465e-31
6.919179547e-31
6.564576653e-31
6.228658958e-31
5.910406799e-31
5.608858859e-31
5.323108658e-31
5.052301169e-31
4.795629807e-31
4.552333365e-31
4.321693402e-31
4.103031648e-31
3.895707699e-31
3.69911671e-31
3.512687318e-31
3.335879732e-31
3.168183878e-31
3.009117712e-31
2.858225561e-31
2.715076595e-31
2.579263453e-31
2.450400893e-31
2.328124537e-31
2.212089687e-31
2.10197024e-31
1.997457595e-31
1.898259741e-31
1.804100282e-31
1.714717589e-31
1.629863994e-31
1.549304975e-31
1.472818505e-31
1.400194288e-31
1.331233174e-31
1.265746521e-31
1.203555629e-31
1.144491201e-31
1.088392853e-31
1.035108591e-31
9.844943938e-32
9.364137676e-32
8.907373423e-32
8.473425014e-32
8.061130007e-32
7.669386423e-32
7.297149492e-32
6.943428667e-32
6.607284648e-32
6.28782673e-32
5.984210189e-32
5.695633922e-32
5.42133811e-32
5.16060191e-32
4.912741703e-32
4.677108903e-32
4.453088195e-32
4.240095741e-32
4.037577683e-32
3.845008329e-32
3.661888998e-32
3.487746374e-32
3.322131293e-32
3.164617442e-32
3.014800188e-32
2.872295423e-32
2.736738643e-32
2.607783762e-32
2.485102261e-32
2.368382274e-32
2.257327617e-32
2.151657174e-32
2.051103969e-32
1.955414526e-32
1.864348143e-32
1.777676228e-32
1.695181716e-32
1.616658434e-32
1.541910532e-32
1.470752039e-32
1.403006306e-32
1.338505519e-32
1.277090283e-32
1.218609165e-32
1.162918296e-32
1.109880993e-32
1.059367407e-32
1.011254135e-32
9.65423972e-33
9.21765496e-33
8.801728771e-33
8.405455082e-33
8.027877861e-33
7.668088374e-33
7.325223083e-33
6.998461385e-33
6.687023132e-33
6.390166822e-33
6.107187465e-33
5.837414956e-33
5.580212211e-33
5.334973611e-33
5.101123396e-33
4.878114049e-33
4.665424898e-33
4.462561033e-33
4.269051733e-33
4.084449492e-33
3.90832861e-33
3.740284149e-33
3.579931116e-33
3.426903299e-33
3.280852348e-33
3.141446887e-33
3.008371746e-33
2.881327136e-33
2.760027742e-33
2.64420223e-33
2.533592377e-33
2.427952504e-33
2.327048789e-33
2.230658689e-33
2.138570573e-33
2.050582959e-33
1.966504112e-33
1.886151524e-33
1.809351493e-33
1.735938634e-33
1.665755573e-33
1.598652494e-33
1.534486685e-33
1.473122368e-33
1.414430221e-33
1.358287093e-33
1.304575762e-33
1.253184525e-33
1.204007058e-33
1.156942065e-33
1.111893124e-33
1.06876835e-33
1.027480168e-33
9.879452205e-34
9.500840404e-34
9.138209427e-34
8.790838291e-34
8.45803974e-34
8.139158694e-34
7.833571169e-34
7.54068233e-34
7.25992525e-34
6.990759393e-34
6.732669465e-34
6.485164443e-34
6.247776058e-34
6.020057803e-34
5.801583905e-34
5.591948202e-34
5.390763469e-34
5.197660232e-34
5.012286537e-34
4.834305946e-34
4.663397951e-34
4.49925663e-34
4.341590063e-34
4.190119664e-34
4.044579481e-34
3.904715919e-34
3.770286908e-34
3.641061161e-34
3.516817826e-34
3.397346306e-34
3.282445463e-34
3.171922963e-34
3.065595393e-34
2.963287432e-34
2.864831728e-34
2.770068152e-34
2.678843895e-34
2.591012991e-34
2.506435963e-34
2.424979337e-34
2.346515619e-34
2.27092293e-34
2.198084799e-34
2.127889848e-34
2.060231551e-34
1.995007985e-34
1.932121739e-34
1.87147951e-34
1.812992189e-34
1.756574475e-34
1.702144739e-34
1.649624843e-34
1.598939991e-34
1.550018536e-34
1.502791987e-34
1.457194743e-34
1.413163915e-34
1.37063936e-34
1.32956332e-34
1.289880581e-34
1.25153823e-34
1.21448554e-34
1.178673941e-34
1.14405686e-34
1.110589615e-34
1.078229361e-34
1.04693504e-34
1.016667247e-34
9.873882116e-35
9.590617228e-35
9.316530089e-35
9.051286668e-35
8.794567037e-35
8.546063425e-35
8.305480909e-35
8.072535708e-35
7.846955979e-35
7.62848021e-35
7.416857307e-35
7.211845846e-35
7.013213773e-35
6.820738249e-35
6.634204967e-35
6.453407728e-35
6.278148732e-35
6.108237038e-35
5.943489081e-35
5.783728565e-35
5.628785605e-35
5.478496509e-35
5.332703812e-35
5.191256068e-35
5.054007141e-35
4.920816071e-35
4.791547327e-35
4.666070043e-35
4.544257883e-35
4.425989066e-35
4.311146206e-35
4.199615651e-35
4.091288039e-35
3.986057366e-35
3.883821353e-35
3.784481173e-35
3.687941093e-35
3.5941086e-35
3.502893816e-35
3.414209865e-35
3.327972415e-35
3.244099593e-35
3.162512106e-35
3.083132969e-35
3.005887116e-35
2.930701619e-35
2.857505494e-35
2.786229548e-35
2.716806631e-35
2.649171182e-35
2.58325928e-35
2.519008732e-35
2.456359047e-35
2.395251619e-35
2.335629766e-35
2.277438807e-35
2.220626408e-35
2.165143063e-35
2.110942167e-35
2.057980945e-35
2.006220712e-35
1.955627776e-35
1.553152656e-35
1.141752458e-35
8.564118773e-36
6.567461122e-36
5.163415944e-36
4.174339662e-36
3.477977867e-36
2.989167182e-36
2.648150351e-36
2.412792923e-36
2.253318096e-36
2.148674755e-36
2.083964256e-36
2.048672312e-36
2.035402027e-36
2.038975642e-36
2.055806273e-36
2.083443572e-36
2.120252605e-36
2.165190766e-36
2.217641973e-36
2.277307985e-36
2.344129239e-36
2.418222453e-36
2.499848142e-36
2.589380882e-36
2.687290565e-36
2.794131561e-36
2.910533237e-36
3.03719499e-36
3.174881253e-36
3.324419845e-36
3.486698207e-36
3.662660235e-36
3.853302915e-36
4.059670471e-36
4.28284927e-36
4.523958047e-36
4.784137818e-36
5.064538779e-36
5.366304494e-36
5.69055287e-36
6.038354894e-36
6.410709365e-36
6.808515701e-36
7.23254341e-36
7.683400326e-36
8.161499294e-36
8.667023572e-36
9.199893883e-36
9.759736512e-36
1.034585573e-35
1.095720926e-35
1.159239232e-35
1.224962697e-35
1.292676155e-35
1.362128113e-35
1.433032552e-35
1.505072388e-35
1.577903095e-35
1.651158473e-35
1.724456122e-35
1.797404728e-35
1.869610783e-35
1.940686281e-35
2.010256154e-35
2.077965296e-35
2.143485169e-35
2.206519615e-35
2.266809657e-35
2.324137206e-35
2.378327589e-35
2.42925078e-35
2.476821503e-35
2.520998094e-35
2.561780386e-35
2.599206774e-35
2.633350462e-35
2.664315174e-35
2.692230683e-35
2.717247934e-35
2.73953445e-35
2.759269583e-35
2.776640256e-35
2.791836895e-35
2.805049967e-35
2.816466759e-35
2.826268843e-35
2.834629908e-35
2.841714099e-35
2.847674835e-35
2.852653995e-35
2.856781477e-35
2.860175082e-35
2.862940669e-35
2.865172527e-35
2.86695391e-35
2.868357719e-35
2.869447266e-35
2.870277104e-35
2.870893863e-35
2.871337108e-35
2.871640168e-35
2.871830922e-35
2.871932542e-35
2.871964177e-35
2.871941567e-35
2.871877593e-35
2.871782759e-35
2.871665606e-35
2.871533062e-35
2.871390737e-35
2.871243167e-35
2.871094002e-35
2.870946162e-35
2.87080196e-35
2.870663195e-35
2.87053122e-35
2.870407005e-35
2.870291178e-35
2.87018406e-35
2.870085707e-35
2.869995934e-35
2.869914353e-35
2.869840404e-35
2.869773388e-35
2.869712504e-35
2.869656884e-35
2.869605628e-35
2.869557839e-35
2.869512652e-35
2.869469267e-35
2.869426965e-35
2.869385131e-35
2.869343269e-35
2.869300998e-35
2.86925807e-35
2.869214351e-35
2.869169823e-35
2.869124564e-35
2.869078736e-35
2.86903257e-35
2.868986342e-35
2.868940355e-35
2.868894927e-35
2.868850368e-35
2.868806965e-35
2.868764978e-35
2.868724623e-35
2.868686071e-35
2.868649441e-35
2.868614806e-35
2.868582188e-35
2.868551567e-35
2.868522884e-35
2.868496052e-35
2.868470958e-35
2.868447473e-35
2.868425456e-35
2.868404769e-35
2.868385273e-35
2.868366837e-35
2.868349343e-35
2.868332688e-35
2.86831678e-35
2.868301547e-35
2.868286932e-35
2.868272894e-35
2.868259406e-35
2.868246453e-35
2.868234033e-35
2.868222152e-35
2.868210825e-35
2.868200073e-35
2.868189922e-35
2.868180403e-35
2.868171547e-35
2.868163391e-35
2.86815597e-35
2.86814932e-35
2.868143476e-35
2.868138468e-35
2.868134328e-35
2.868131081e-35
2.868128747e-35
2.868127339e-35
2.868126865e-35
2.868127324e-35
2.868128704e-35
2.868130988e-35
2.868134144e-35
2.868138134e-35
2.868142908e-35
2.868148406e-35
2.868154561e-35
2.868161295e-35
2.868168524e-35
2.868176159e-35
2.868184106e-35
2.868192264e-35
2.868200535e-35
2.868208818e-35
2.868217015e-35
2.868225029e-35
2.868232769e-35
2.868240147e-35
2.868247083e-35
2.868253504e-35
2.868259344e-35
2.868264549e-35
2.868269071e-35
2.868272872e-35
2.868275925e-35
2.868278212e-35
2.868279723e-35
2.868280459e-35
2.868280428e-35
2.868279645e-35
2.868278134e-35
2.868275924e-35
2.86827305e-35
2.868269552e-35
2.868265473e-35
2.86826086e-35
2.868255761e-35
2.868250226e-35
2.868244307e-35
2.868238056e-35
2.868231523e-35
2.868224758e-35
2.86821781e-35
2.868210727e-35
2.868203552e-35
2.868196332e-35
2.868189101e-35
2.868181901e-35
2.868174765e-35
2.868167723e-35
2.868160805e-35
2.868154036e-35
2.868147436e-35
2.868141026e-35
2.868134821e-35
2.868128834e-35
2.868123078e-35
2.868117567e-35
2.868112325e-35
2.868107408e-35
2.868102964e-35
2.868099398e-35
)
;

boundaryField
{
    inlet
    {
        type            fixedValue;
        value           uniform 0;
    }
    outlet
    {
        type            zeroGradient;
    }
    wall
    {
        type            empty;
    }
}


// ************************************************************************* //
