/*--------------------------------*- C++ -*----------------------------------*\
  =========                 |
  \\      /  F ield         | OpenFOAM: The Open Source CFD Toolbox
   \\    /   O peration     | Website:  https://openfoam.org
    \\  /    A nd           | Version:  7
     \\/     M anipulation  |
\*---------------------------------------------------------------------------*/
FoamFile
{
    version     2.0;
    format      ascii;
    class       volScalarField;
    location    "0.000558243009";
    object      CH3CHO;
}
// * * * * * * * * * * * * * * * * * * * * * * * * * * * * * * * * * * * * * //

dimensions      [0 0 0 0 0 0 0];

internalField   nonuniform List<scalar> 
1500
(
6.338749534e-14
2.479164281e-13
5.115602246e-13
7.676230218e-13
9.581669907e-13
1.07422247e-12
1.134342873e-12
1.161473404e-12
1.172320133e-12
1.176213338e-12
1.177481824e-12
1.177860533e-12
1.177964963e-12
1.177991743e-12
1.177998166e-12
1.177999615e-12
1.177999923e-12
1.177999986e-12
1.177999998e-12
1.178e-12
1.178e-12
1.178e-12
1.178e-12
1.178e-12
1.178e-12
1.178e-12
1.178e-12
1.178e-12
1.178e-12
1.178e-12
1.178e-12
1.178e-12
1.178e-12
1.178e-12
1.178e-12
1.178e-12
1.178e-12
1.178e-12
1.178e-12
1.178e-12
1.178e-12
1.178e-12
1.178e-12
1.178e-12
1.178e-12
1.178e-12
1.178e-12
1.178e-12
1.178e-12
1.178e-12
1.178e-12
1.178e-12
1.178e-12
1.178e-12
1.178e-12
1.178e-12
1.178e-12
1.178e-12
1.178e-12
1.178e-12
1.178e-12
1.178e-12
1.178e-12
1.178e-12
1.178e-12
1.178e-12
1.178e-12
1.178e-12
1.178e-12
1.178e-12
1.178e-12
1.178e-12
1.178e-12
1.178e-12
1.178e-12
1.178e-12
1.178e-12
1.178e-12
1.178e-12
1.178e-12
1.178e-12
1.178e-12
1.178e-12
1.178e-12
1.178e-12
1.178e-12
1.178e-12
1.178e-12
1.178e-12
1.178e-12
1.178e-12
1.178e-12
1.178e-12
1.178e-12
1.178e-12
1.178e-12
1.178e-12
1.178e-12
1.178e-12
1.178e-12
1.178e-12
1.178e-12
1.178e-12
1.178e-12
1.178e-12
1.178e-12
1.178e-12
1.178e-12
1.178e-12
1.178e-12
1.178e-12
1.178e-12
1.178e-12
1.178e-12
1.178e-12
1.178e-12
1.178e-12
1.178e-12
1.178e-12
1.178e-12
1.178e-12
1.178e-12
1.178e-12
1.178e-12
1.178e-12
1.178e-12
1.178e-12
1.178e-12
1.178e-12
1.178e-12
1.178e-12
1.178e-12
1.178e-12
1.178e-12
1.178e-12
1.178e-12
1.178e-12
1.178e-12
1.178e-12
1.178e-12
1.178e-12
1.178e-12
1.178e-12
1.178e-12
1.178e-12
1.178e-12
1.178e-12
1.178e-12
1.178e-12
1.178e-12
1.178e-12
1.178e-12
1.178e-12
1.178e-12
1.178e-12
1.178e-12
1.178e-12
1.178e-12
1.178e-12
1.178e-12
1.178e-12
1.178e-12
1.178e-12
1.178e-12
1.178e-12
1.178e-12
1.178e-12
1.178e-12
1.178e-12
1.178e-12
1.178e-12
1.178e-12
1.178e-12
1.178e-12
1.178e-12
1.178e-12
1.178e-12
1.178e-12
1.178e-12
1.178e-12
1.178e-12
1.178e-12
1.178e-12
1.178e-12
1.178e-12
1.178e-12
1.178e-12
1.178e-12
1.178e-12
1.178e-12
1.178e-12
1.178e-12
1.178e-12
1.178e-12
1.178e-12
1.178e-12
1.178e-12
1.178e-12
1.178e-12
1.178e-12
1.178e-12
1.178e-12
1.178e-12
1.178e-12
1.178e-12
1.178e-12
1.178e-12
1.178e-12
1.178e-12
1.178e-12
1.178e-12
1.178e-12
1.178e-12
1.178e-12
1.178e-12
1.178e-12
1.178e-12
1.178e-12
1.178e-12
1.178e-12
1.178e-12
1.178e-12
1.178e-12
1.178e-12
1.178e-12
1.178e-12
1.178e-12
1.178e-12
1.178e-12
1.178e-12
1.178e-12
1.178e-12
1.178e-12
1.178e-12
1.178e-12
1.178000001e-12
1.178000001e-12
1.178000003e-12
1.178000013e-12
1.178000047e-12
1.178000166e-12
1.178000559e-12
1.178001771e-12
1.178005257e-12
1.17801456e-12
1.178037461e-12
1.178088908e-12
1.178192516e-12
1.178372848e-12
1.178619037e-12
1.178705287e-12
1.178730652e-12
1.178756995e-12
1.178784371e-12
1.17881282e-12
1.178842382e-12
1.178873102e-12
1.178905028e-12
1.178938211e-12
1.178972707e-12
1.179008574e-12
1.179045874e-12
1.179084671e-12
1.179125033e-12
1.17916703e-12
1.179210738e-12
1.179256234e-12
1.179303602e-12
1.179352928e-12
1.179404305e-12
1.179457828e-12
1.179513599e-12
1.179571727e-12
1.179632324e-12
1.179695509e-12
1.179761409e-12
1.179830156e-12
1.17990189e-12
1.17997676e-12
1.180054923e-12
1.180136542e-12
1.180221793e-12
1.180310859e-12
1.180403936e-12
1.180501229e-12
1.180602955e-12
1.180709344e-12
1.18082064e-12
1.180937098e-12
1.18105899e-12
1.181186604e-12
1.181320243e-12
1.181460228e-12
1.181606898e-12
1.181760613e-12
1.181921751e-12
1.182090715e-12
1.182267928e-12
1.182453841e-12
1.182648926e-12
1.182853687e-12
1.183068653e-12
1.183294385e-12
1.183531477e-12
1.183780554e-12
1.184042278e-12
1.18431735e-12
1.184606507e-12
1.184910532e-12
1.185230247e-12
1.185566525e-12
1.185920283e-12
1.186292492e-12
1.186684175e-12
1.187096412e-12
1.187530344e-12
1.187987171e-12
1.188468159e-12
1.188974644e-12
1.189508033e-12
1.190069808e-12
1.190661529e-12
1.191284839e-12
1.191941469e-12
1.192633238e-12
1.193362061e-12
1.19412995e-12
1.194939021e-12
1.195791499e-12
1.196689717e-12
1.197636131e-12
1.198633313e-12
1.199683967e-12
1.200790926e-12
1.201957161e-12
1.203185789e-12
1.204480072e-12
1.205843429e-12
1.207279438e-12
1.208791845e-12
1.210384566e-12
1.212061699e-12
1.213827526e-12
1.215686519e-12
1.21764335e-12
1.219702896e-12
1.221870246e-12
1.224150705e-12
1.226549806e-12
1.229073314e-12
1.231727232e-12
1.234517813e-12
1.237451558e-12
1.240535234e-12
1.243775874e-12
1.247180785e-12
1.250757556e-12
1.254514068e-12
1.258458495e-12
1.262599315e-12
1.266945317e-12
1.271505606e-12
1.276289611e-12
1.281307091e-12
1.28656814e-12
1.292083196e-12
1.297863046e-12
1.303918831e-12
1.310262051e-12
1.316904574e-12
1.323858636e-12
1.33113685e-12
1.338752207e-12
1.346718086e-12
1.355048248e-12
1.36375685e-12
1.372858442e-12
1.38236797e-12
1.392300779e-12
1.402672617e-12
1.41349963e-12
1.424798372e-12
1.436585795e-12
1.448879258e-12
1.461696518e-12
1.475055736e-12
1.488975469e-12
1.50347467e-12
1.518572687e-12
1.534289253e-12
1.550644487e-12
1.567658889e-12
1.585353328e-12
1.603749043e-12
1.622867631e-12
1.642731042e-12
1.663361567e-12
1.684781834e-12
1.707014792e-12
1.730083705e-12
1.754012139e-12
1.778823951e-12
1.804543275e-12
1.83119451e-12
1.858802305e-12
1.887391548e-12
1.916987344e-12
1.947615009e-12
1.979300045e-12
2.012068129e-12
2.045945094e-12
2.080956912e-12
2.117129675e-12
2.154489579e-12
2.193062902e-12
2.23287599e-12
2.273955234e-12
2.316327052e-12
2.36001787e-12
2.405054103e-12
2.451462135e-12
2.499268302e-12
2.548498869e-12
2.599180013e-12
2.651337807e-12
2.704998199e-12
2.760186995e-12
2.816929841e-12
2.875252209e-12
2.93517938e-12
2.996736427e-12
3.059948206e-12
3.124839337e-12
3.191434197e-12
3.259756904e-12
3.329831316e-12
3.401681013e-12
3.475329297e-12
3.550799186e-12
3.628113411e-12
3.707294411e-12
3.78836434e-12
3.871345064e-12
3.95625817e-12
4.043124971e-12
4.131966515e-12
4.222803601e-12
4.31565679e-12
4.410546423e-12
4.507492645e-12
4.606515423e-12
4.707634579e-12
4.810869815e-12
4.916240748e-12
5.023766948e-12
5.133467977e-12
5.245363434e-12
5.359473004e-12
5.475816508e-12
5.59441396e-12
5.715285629e-12
5.838452101e-12
5.963934353e-12
6.09175382e-12
6.221932479e-12
6.354492933e-12
6.489458492e-12
6.626853276e-12
6.766702307e-12
6.909031614e-12
7.053868343e-12
7.201240874e-12
7.351178935e-12
7.503713734e-12
7.658878088e-12
7.81670656e-12
7.977235605e-12
8.140503718e-12
8.306551592e-12
8.475422279e-12
8.647161358e-12
8.821817113e-12
8.999440716e-12
9.18008641e-12
9.363811713e-12
9.550677615e-12
9.740748792e-12
9.93409382e-12
1.01307854e-11
1.033090061e-11
1.053452109e-11
1.074173336e-11
1.095262903e-11
1.116730509e-11
1.138586414e-11
1.160841472e-11
1.183507159e-11
1.2065956e-11
1.2301196e-11
1.254092681e-11
1.278529107e-11
1.303443924e-11
1.328852988e-11
1.354773009e-11
1.381221578e-11
1.408217214e-11
1.435779396e-11
1.463928605e-11
1.492686368e-11
1.522075295e-11
1.55211913e-11
1.58284279e-11
1.614272419e-11
1.646435426e-11
1.67936055e-11
1.713077901e-11
1.747619008e-11
1.783016882e-11
1.819306067e-11
1.856522706e-11
1.894704597e-11
1.933891257e-11
1.974123987e-11
2.015445939e-11
2.057902179e-11
2.101539762e-11
2.146407803e-11
2.192557555e-11
2.240042476e-11
2.288918331e-11
2.339243273e-11
2.391077933e-11
2.444485519e-11
2.499531921e-11
2.556285821e-11
2.614818792e-11
2.675205417e-11
2.737523416e-11
2.801853782e-11
2.868280923e-11
2.936892813e-11
3.007781161e-11
3.081041581e-11
3.156773785e-11
3.235081795e-11
3.316074163e-11
3.399864224e-11
3.48657037e-11
3.57631635e-11
3.669231612e-11
3.765451674e-11
3.86511855e-11
3.968381226e-11
4.075396194e-11
4.186328067e-11
4.301350278e-11
4.420645872e-11
4.544408428e-11
4.672843115e-11
4.806167913e-11
4.944615025e-11
5.088432529e-11
5.237886289e-11
5.393262189e-11
5.554868756e-11
5.723040216e-11
5.898140089e-11
6.080565415e-11
6.270751713e-11
6.469178838e-11
6.676377865e-11
6.892939229e-11
7.119522317e-11
7.356866817e-11
7.605806122e-11
7.867283186e-11
8.142369291e-11
8.432286247e-11
8.7384327e-11
9.062415276e-11
9.406085485e-11
9.771583459e-11
1.016138979e-10
1.057838697e-10
1.102593227e-10
1.150794414e-10
1.202900463e-10
1.259448097e-10
1.321066965e-10
1.388496746e-10
1.462607424e-10
1.544423354e-10
1.6351518e-10
1.736216804e-10
1.849299357e-10
1.976385062e-10
2.119820683e-10
2.282381233e-10
2.467349572e-10
2.678610833e-10
2.920764463e-10
3.199257127e-10
3.520540399e-10
3.892257823e-10
4.323466834e-10
4.824902016e-10
5.409287392e-10
6.091706881e-10
6.890043714e-10
7.825501664e-10
8.923223268e-10
1.021302309e-09
1.173025737e-09
1.351685542e-09
1.562254273e-09
1.810629142e-09
2.103804012e-09
2.450073332e-09
2.859273918e-09
3.34307161e-09
3.915301076e-09
4.592368614e-09
5.393729562e-09
6.342454093e-09
7.465897677e-09
8.796495466e-09
1.03727034e-08
1.224011292e-08
1.445277117e-08
1.707474418e-08
2.018196742e-08
2.386443609e-08
2.82287967e-08
3.340141282e-08
3.953199031e-08
4.679786291e-08
5.540905618e-08
6.561426863e-08
7.770793268e-08
9.203854562e-08
1.090184929e-07
1.291356231e-07
1.52966876e-07
1.811943137e-07
2.146239611e-07
2.542079213e-07
3.010703052e-07
3.565375902e-07
4.221741078e-07
4.998234562e-07
5.9165673e-07
7.002285662e-07
8.285421114e-07
9.801241205e-07
1.159111494e-06
1.370350647e-06
1.619511157e-06
1.913215162e-06
2.259183957e-06
2.666403116e-06
3.145307302e-06
3.707985589e-06
4.368407706e-06
5.142670953e-06
6.0492668e-06
7.109365129e-06
8.347112925e-06
9.789942831e-06
1.146888547e-05
1.341887787e-05
1.56790588e-05
1.829304041e-05
2.130914461e-05
2.478059214e-05
2.876563235e-05
3.332760296e-05
3.853491085e-05
4.446092789e-05
5.118379969e-05
5.8786169e-05
6.735482051e-05
7.698025776e-05
8.775622694e-05
9.977920507e-05
0.0001131478722
0.000127962588
0.000144324892
0.0001623370477
0.0001821016438
0.0002037212718
0.0002272982761
0.0002529345959
0.0002807316869
0.000310790527
0.000343211717
0.0003780957324
0.0004155435106
0.0004556469406
0.0004985413064
0.0005442680156
0.0005931213846
0.0006451734976
0.0007005103738
0.0007581531129
0.0008185088592
0.000881181898
0.0009454088341
0.001009938472
0.001073044102
0.001132774932
0.001187297185
0.001235046868
0.001274754538
0.001305371726
0.001326446203
0.001336382864
0.001334935035
0.001321577103
0.001295706861
0.001257745101
0.001207690626
0.001146176001
0.00107369268
0.0009925241871
0.0009037488618
0.0008093841837
0.0007118542612
0.0006139668614
0.0005187495733
0.0004286540486
0.0003472313349
0.0002755097006
0.0002149193446
0.00016511717
0.0001252933876
9.418024842e-05
7.032622132e-05
5.21088009e-05
3.837640957e-05
2.81848422e-05
2.06614539e-05
1.512971643e-05
1.107110085e-05
8.095914079e-06
5.915082883e-06
4.315830272e-06
3.148141103e-06
2.310932198e-06
1.698588891e-06
1.245101569e-06
9.140953308e-07
6.721972784e-07
4.951408365e-07
3.653299103e-07
2.700018948e-07
1.999637429e-07
1.483215779e-07
1.102276771e-07
8.208492822e-08
6.126086407e-08
4.582643347e-08
3.436634141e-08
2.584102453e-08
1.94860235e-08
1.473851734e-08
1.118362698e-08
8.515129214e-09
6.506686909e-09
4.990761577e-09
3.843142745e-09
2.971587389e-09
2.307468923e-09
1.799632571e-09
1.409868717e-09
1.109574416e-09
8.772880904e-10
6.968665862e-10
5.561352589e-10
4.458868335e-10
3.59137708e-10
2.905745443e-10
2.361416939e-10
1.927330152e-10
1.579611885e-10
1.29984657e-10
1.073774968e-10
8.903132245e-11
7.408115047e-11
6.184921496e-11
5.180226588e-11
4.351901705e-11
3.666525337e-11
3.097473334e-11
2.623448793e-11
2.227346457e-11
1.895372365e-11
1.616358871e-11
1.381229705e-11
1.182580606e-11
1.014349314e-11
8.71554873e-12
7.500908935e-12
6.465609719e-12
5.581471723e-12
4.825045279e-12
4.176760997e-12
3.62024335e-12
3.141753991e-12
2.729738715e-12
2.374457495e-12
2.067681389e-12
1.80244342e-12
1.572833198e-12
1.373827115e-12
1.201147529e-12
1.051145697e-12
9.207041795e-13
8.0715529e-13
7.082127782e-13
6.219144783e-13
5.465740536e-13
4.807403127e-13
4.231628417e-13
3.727629163e-13
3.286088399e-13
2.898949974e-13
2.559240356e-13
2.26091681e-13
1.99873784e-13
1.76815247e-13
1.565205506e-13
1.386456361e-13
1.2289094e-13
1.089954115e-13
9.673136709e-14
8.590006014e-14
7.632786255e-14
6.786297045e-14
6.037255748e-14
5.37403148e-14
4.78643206e-14
4.265519667e-14
3.803450802e-14
3.39333751e-14
3.029126838e-14
2.705495993e-14
2.417761189e-14
2.161798233e-14
1.933973347e-14
1.731082838e-14
1.550300436e-14
1.389131303e-14
1.245371856e-14
1.117074594e-14
1.002517346e-14
9.0017631e-15
8.087024442e-15
7.269007571e-15
6.53712119e-15
5.881972841e-15
5.295229298e-15
4.769492562e-15
4.298191812e-15
3.875487754e-15
3.49618855e-15
3.155675529e-15
2.849838063e-15
2.575015835e-15
2.327947644e-15
2.105726931e-15
1.905761583e-15
1.72573899e-15
1.563594889e-15
1.417485977e-15
1.285765201e-15
1.166960444e-15
1.059755308e-15
9.629720521e-16
8.755566256e-16
7.965651229e-16
7.251520486e-16
6.605596616e-16
6.021085439e-16
5.491893349e-16
5.01255215e-16
4.578153349e-16
4.184288706e-16
3.826997603e-16
3.50272072e-16
3.208256483e-16
2.940726623e-16
2.697539431e-16
2.476362915e-16
2.27509619e-16
2.091847066e-16
1.924910107e-16
1.772746791e-16
1.633970837e-16
1.507330364e-16
1.39169621e-16
1.286047456e-16
1.189462447e-16
1.101108755e-16
1.02023375e-16
9.461561372e-17
8.782599446e-17
8.159878773e-17
7.588351391e-17
7.063441669e-17
6.581009465e-17
6.137294388e-17
5.728893929e-17
5.352718233e-17
5.005962802e-17
4.686082111e-17
4.390766051e-17
4.117906773e-17
3.865600108e-17
3.632108525e-17
3.415856456e-17
3.215400749e-17
3.029432717e-17
2.856758779e-17
2.696295556e-17
2.547048383e-17
2.408116903e-17
2.278673867e-17
2.157966454e-17
2.045307005e-17
1.940070113e-17
1.84167542e-17
1.749601126e-17
1.663366037e-17
1.582528238e-17
1.506685551e-17
1.43546748e-17
1.368533263e-17
1.305570304e-17
1.246296058e-17
1.190443706e-17
1.137774792e-17
1.088064329e-17
1.041112212e-17
9.967284712e-18
9.547394095e-18
9.149869749e-18
8.773220212e-18
8.416092067e-18
8.077211433e-18
7.755408329e-18
7.449628521e-18
7.158854598e-18
6.882207635e-18
6.618800865e-18
6.367827447e-18
6.1285523e-18
5.90029992e-18
5.682437471e-18
5.474378899e-18
5.275578648e-18
5.085494823e-18
4.903655272e-18
4.729610782e-18
4.562964498e-18
4.403321497e-18
4.250315539e-18
4.103583575e-18
3.962825246e-18
3.827717981e-18
3.698001005e-18
3.57341785e-18
3.453732301e-18
3.338701669e-18
3.228069897e-18
3.12167244e-18
3.01929794e-18
2.920766495e-18
2.825891876e-18
2.734515039e-18
2.646495862e-18
2.561673611e-18
2.47991995e-18
2.40109764e-18
2.325081609e-18
2.251758058e-18
2.181016584e-18
2.112734223e-18
2.046830882e-18
1.983201842e-18
1.921762024e-18
1.862422735e-18
1.805094524e-18
1.749693042e-18
1.696152265e-18
1.644400576e-18
1.594375364e-18
1.546006445e-18
1.499242462e-18
1.454014901e-18
1.410270461e-18
1.367955439e-18
1.32700864e-18
1.287389484e-18
1.249037044e-18
1.211913097e-18
1.175974228e-18
1.141190311e-18
1.107514295e-18
1.074895192e-18
1.043306352e-18
1.012706756e-18
9.830683175e-19
9.543514803e-19
9.265105222e-19
8.995441481e-19
8.734145254e-19
8.480878247e-19
8.235402074e-19
7.997388926e-19
7.766695503e-19
7.543107112e-19
7.326352233e-19
7.116125233e-19
6.912238004e-19
6.714531823e-19
6.522821135e-19
6.336922966e-19
6.156659485e-19
5.981865109e-19
5.812198042e-19
5.64765868e-19
5.487966557e-19
5.33303049e-19
5.182611285e-19
5.036646172e-19
4.894998899e-19
4.757490837e-19
4.62408883e-19
4.494542477e-19
4.368797322e-19
4.246714352e-19
4.128241654e-19
4.01319868e-19
3.901545882e-19
3.793110768e-19
3.687759501e-19
3.585503524e-19
3.486210245e-19
3.389782648e-19
3.296132658e-19
3.205139874e-19
3.116785363e-19
3.03096528e-19
2.947585591e-19
2.866620868e-19
2.788018014e-19
2.711616875e-19
2.637395526e-19
2.565268188e-19
2.495186023e-19
2.427123111e-19
2.361004631e-19
2.296759432e-19
2.234314094e-19
2.173629434e-19
2.114631328e-19
2.057309017e-19
2.001596303e-19
1.947455347e-19
1.894817856e-19
1.843671216e-19
1.79397691e-19
1.745654887e-19
1.698690664e-19
1.652988321e-19
1.608565018e-19
1.565393731e-19
1.523390931e-19
1.482576183e-19
1.442888349e-19
1.404261325e-19
1.36671448e-19
1.330230357e-19
1.294783152e-19
1.260280798e-19
1.226730021e-19
1.194069266e-19
1.162305326e-19
1.131390841e-19
1.101348945e-19
1.07217602e-19
1.043796671e-19
1.016191434e-19
9.893020341e-20
9.631590993e-20
9.376676691e-20
9.128981482e-20
8.888218351e-20
8.653897294e-20
8.425797964e-20
8.204005268e-20
7.98842335e-20
7.778558372e-20
7.574331822e-20
7.375771573e-20
7.182408734e-20
6.994324846e-20
6.811381666e-20
6.633250491e-20
6.459940637e-20
6.291401806e-20
6.12751449e-20
5.967971448e-20
5.812646186e-20
5.661214783e-20
5.513816446e-20
5.370417369e-20
5.230853397e-20
5.094974828e-20
4.963042433e-20
4.834388297e-20
4.709023346e-20
4.586699294e-20
4.467884563e-20
4.352377339e-20
4.240133315e-20
4.130609791e-20
4.023845933e-20
3.919821458e-20
3.818804685e-20
3.720336854e-20
3.62458891e-20
3.531464683e-20
3.440577852e-20
3.352216433e-20
3.26614837e-20
3.182381183e-20
3.100739945e-20
3.021299475e-20
2.944007963e-20
2.868556001e-20
2.795305696e-20
2.723927711e-20
2.654391692e-20
2.586557247e-20
2.520642136e-20
2.456626236e-20
2.394365948e-20
2.333462697e-20
2.274299744e-20
2.216757414e-20
2.16063656e-20
2.105760369e-20
2.052454233e-20
2.000394006e-20
1.949858511e-20
1.900644596e-20
1.852606466e-20
1.805868711e-20
1.76040464e-20
1.715940737e-20
1.672676307e-20
1.630364362e-20
1.58902056e-20
1.548807712e-20
1.509707101e-20
1.471583904e-20
1.434384544e-20
1.398277048e-20
1.36319613e-20
1.328958835e-20
1.295529494e-20
1.263076724e-20
1.23133122e-20
1.200345411e-20
1.17049905e-20
1.14134979e-20
1.112982358e-20
1.085259755e-20
1.058015912e-20
1.031547991e-20
1.005767405e-20
9.80585485e-21
9.561717717e-21
9.324627416e-21
9.094762273e-21
8.869183112e-21
8.649517797e-21
8.434590531e-21
8.225194952e-21
8.02039948e-21
7.821495855e-21
7.628939719e-21
7.440706945e-21
7.256728602e-21
7.075633805e-21
6.900340855e-21
6.729645677e-21
6.564725025e-21
6.403171063e-21
6.247077695e-21
6.094772395e-21
5.946383929e-21
5.800706101e-21
5.659049645e-21
5.519674679e-21
5.383640489e-21
5.252548093e-21
5.123845121e-21
4.997078582e-21
4.874693395e-21
4.754344434e-21
4.638067259e-21
4.525591636e-21
4.416108638e-21
4.30811954e-21
4.20405395e-21
4.102917583e-21
4.004233775e-21
3.907855428e-21
3.81215555e-21
3.718284026e-21
3.627684452e-21
3.53972505e-21
3.453068627e-21
3.369213165e-21
3.288469787e-21
3.208663257e-21
3.131400177e-21
3.054784216e-21
2.979277064e-21
2.90699506e-21
2.836070324e-21
2.766223537e-21
2.699267468e-21
2.634009278e-21
2.570157078e-21
2.507304395e-21
2.445381383e-21
2.38620316e-21
2.327804116e-21
2.271311425e-21
2.21547641e-21
2.16095958e-21
2.10841862e-21
2.056912887e-21
2.00622354e-21
1.956101887e-21
1.907095486e-21
1.85874189e-21
1.478616753e-21
1.070808174e-21
7.771423898e-22
5.796044901e-22
4.481280288e-22
3.421567637e-22
2.703433798e-22
2.25764536e-22
1.952644552e-22
1.613755203e-22
1.540905336e-22
1.40254048e-22
1.292829414e-22
1.220234104e-22
1.225368398e-22
1.20071118e-22
1.165835998e-22
1.204827475e-22
1.19378977e-22
1.211308682e-22
1.229426987e-22
1.24292782e-22
1.247502836e-22
1.284164939e-22
1.310475868e-22
1.338025868e-22
1.368560093e-22
1.401904957e-22
1.439049183e-22
1.47956891e-22
1.522151644e-22
1.568211895e-22
1.617962548e-22
1.670405316e-22
1.727299617e-22
1.785987851e-22
1.849126656e-22
1.917157706e-22
1.98904464e-22
2.064141006e-22
2.144527131e-22
2.228349233e-22
2.316146726e-22
2.409313835e-22
2.507186582e-22
2.609457908e-22
2.712464611e-22
2.825430751e-22
2.935678578e-22
3.053327022e-22
3.177728479e-22
3.300666848e-22
3.427418295e-22
3.557449549e-22
3.687858817e-22
3.821203596e-22
3.954843454e-22
4.091883173e-22
4.225768738e-22
4.358486543e-22
4.491235257e-22
4.622352637e-22
4.750868919e-22
4.874763098e-22
4.996928234e-22
5.11472662e-22
5.228330292e-22
5.337034887e-22
5.440533792e-22
5.53866311e-22
5.63129181e-22
5.718128061e-22
5.799533385e-22
5.874674014e-22
5.944082776e-22
6.008058159e-22
6.067559217e-22
6.120585822e-22
6.168142474e-22
6.21097999e-22
6.250069945e-22
6.284109366e-22
6.314673807e-22
6.341426295e-22
6.36453088e-22
6.384832601e-22
6.402362787e-22
6.417177152e-22
6.430126905e-22
6.440813361e-22
6.449818508e-22
6.457418648e-22
6.463597377e-22
6.468690724e-22
6.473027673e-22
6.476408928e-22
6.479090937e-22
6.481196154e-22
6.482861134e-22
6.484136536e-22
6.48505832e-22
6.485806358e-22
6.486276872e-22
6.486610759e-22
6.486808332e-22
6.486876607e-22
6.486901521e-22
6.486869475e-22
6.486819981e-22
6.48669932e-22
6.486597753e-22
6.486476352e-22
6.486304025e-22
6.48616928e-22
6.486019454e-22
6.485864461e-22
6.485717325e-22
6.485570594e-22
6.48542699e-22
6.485294233e-22
6.485174522e-22
6.485055971e-22
6.484947271e-22
6.484845721e-22
6.484749584e-22
6.484665623e-22
6.484581472e-22
6.484516376e-22
6.484450421e-22
6.484388803e-22
6.484333357e-22
6.484276484e-22
6.484240711e-22
6.484189995e-22
6.4841508e-22
6.484107089e-22
6.484051811e-22
6.484026433e-22
6.483981799e-22
6.483946037e-22
6.483888756e-22
6.4838506e-22
6.483815811e-22
6.483769733e-22
6.483716984e-22
6.483663138e-22
6.483616962e-22
6.483598736e-22
6.48356439e-22
6.48351899e-22
6.483486821e-22
6.483441972e-22
6.483388622e-22
6.483324957e-22
6.483338706e-22
6.483283253e-22
6.483275796e-22
6.483245384e-22
6.483220733e-22
6.483217423e-22
6.483194099e-22
6.483198359e-22
6.483149986e-22
6.483137457e-22
6.48314382e-22
6.483071116e-22
6.483068028e-22
6.483053801e-22
6.483044856e-22
6.482995047e-22
6.482974618e-22
6.482973969e-22
6.482971704e-22
6.482980118e-22
6.482958702e-22
6.48293308e-22
6.482968096e-22
6.482918644e-22
6.482934334e-22
6.482925453e-22
6.482958235e-22
6.482943763e-22
6.482908171e-22
6.482914221e-22
6.482914164e-22
6.482890565e-22
6.482892808e-22
6.482901065e-22
6.482898274e-22
6.48288474e-22
6.482915342e-22
6.482900795e-22
6.482890005e-22
6.482922738e-22
6.482932436e-22
6.482921424e-22
6.4829412e-22
6.482946878e-22
6.482958281e-22
6.482919955e-22
6.482933815e-22
6.482927265e-22
6.482964418e-22
6.48296631e-22
6.482952794e-22
6.482977452e-22
6.483001412e-22
6.482994003e-22
6.482972763e-22
6.483006649e-22
6.483019007e-22
6.483016228e-22
6.48302203e-22
6.48302876e-22
6.483017507e-22
6.483022562e-22
6.483021479e-22
6.483022902e-22
6.483016273e-22
6.48301563e-22
6.483005656e-22
6.48300129e-22
6.482990354e-22
6.482989184e-22
6.482978522e-22
6.482974082e-22
6.482964525e-22
6.482956532e-22
6.482942437e-22
6.482937615e-22
6.482930297e-22
6.482917041e-22
6.482907774e-22
6.482897149e-22
6.482883728e-22
6.482879447e-22
6.482870694e-22
6.48285897e-22
6.482850172e-22
6.482822655e-22
6.482811785e-22
6.482801502e-22
6.482793378e-22
6.482798652e-22
6.482786094e-22
6.482783208e-22
6.482754204e-22
6.482759229e-22
6.482782546e-22
6.482769744e-22
)
;

boundaryField
{
    inlet
    {
        type            fixedValue;
        value           uniform 0;
    }
    outlet
    {
        type            zeroGradient;
    }
    wall
    {
        type            empty;
    }
}


// ************************************************************************* //
