/*--------------------------------*- C++ -*----------------------------------*\
  =========                 |
  \\      /  F ield         | OpenFOAM: The Open Source CFD Toolbox
   \\    /   O peration     | Website:  https://openfoam.org
    \\  /    A nd           | Version:  7
     \\/     M anipulation  |
\*---------------------------------------------------------------------------*/
FoamFile
{
    version     2.0;
    format      ascii;
    class       volScalarField;
    location    "0.000558243009";
    object      CH3CHCO;
}
// * * * * * * * * * * * * * * * * * * * * * * * * * * * * * * * * * * * * * //

dimensions      [0 0 0 0 0 0 0];

internalField   nonuniform List<scalar> 
1500
(
3.288739249e-15
1.283974418e-14
2.64600366e-14
3.96355564e-14
4.939263739e-14
5.530498695e-14
5.835161063e-14
5.971903797e-14
6.026271718e-14
6.045676171e-14
6.051962365e-14
6.053828221e-14
6.054339716e-14
6.054470103e-14
6.054501192e-14
6.05450816e-14
6.054509635e-14
6.054509931e-14
6.054509987e-14
6.054509998e-14
6.054509999e-14
6.05451e-14
6.05451e-14
6.05451e-14
6.05451e-14
6.05451e-14
6.05451e-14
6.05451e-14
6.05451e-14
6.05451e-14
6.05451e-14
6.05451e-14
6.05451e-14
6.05451e-14
6.05451e-14
6.05451e-14
6.05451e-14
6.05451e-14
6.05451e-14
6.05451e-14
6.05451e-14
6.05451e-14
6.05451e-14
6.05451e-14
6.05451e-14
6.05451e-14
6.05451e-14
6.05451e-14
6.05451e-14
6.05451e-14
6.05451e-14
6.05451e-14
6.05451e-14
6.05451e-14
6.05451e-14
6.05451e-14
6.05451e-14
6.05451e-14
6.05451e-14
6.05451e-14
6.05451e-14
6.05451e-14
6.05451e-14
6.05451e-14
6.05451e-14
6.05451e-14
6.05451e-14
6.05451e-14
6.05451e-14
6.05451e-14
6.05451e-14
6.05451e-14
6.05451e-14
6.05451e-14
6.05451e-14
6.05451e-14
6.05451e-14
6.05451e-14
6.05451e-14
6.05451e-14
6.05451e-14
6.05451e-14
6.05451e-14
6.05451e-14
6.05451e-14
6.05451e-14
6.05451e-14
6.05451e-14
6.05451e-14
6.05451e-14
6.05451e-14
6.05451e-14
6.05451e-14
6.05451e-14
6.05451e-14
6.05451e-14
6.05451e-14
6.05451e-14
6.05451e-14
6.05451e-14
6.05451e-14
6.05451e-14
6.05451e-14
6.05451e-14
6.05451e-14
6.05451e-14
6.05451e-14
6.05451e-14
6.05451e-14
6.05451e-14
6.05451e-14
6.05451e-14
6.05451e-14
6.05451e-14
6.05451e-14
6.05451e-14
6.05451e-14
6.05451e-14
6.05451e-14
6.05451e-14
6.05451e-14
6.05451e-14
6.05451e-14
6.05451e-14
6.05451e-14
6.05451e-14
6.05451e-14
6.05451e-14
6.05451e-14
6.05451e-14
6.05451e-14
6.05451e-14
6.05451e-14
6.05451e-14
6.05451e-14
6.05451e-14
6.05451e-14
6.05451e-14
6.05451e-14
6.05451e-14
6.05451e-14
6.05451e-14
6.05451e-14
6.05451e-14
6.05451e-14
6.05451e-14
6.05451e-14
6.05451e-14
6.05451e-14
6.05451e-14
6.05451e-14
6.05451e-14
6.05451e-14
6.05451e-14
6.05451e-14
6.05451e-14
6.05451e-14
6.05451e-14
6.05451e-14
6.05451e-14
6.05451e-14
6.05451e-14
6.05451e-14
6.05451e-14
6.05451e-14
6.05451e-14
6.05451e-14
6.05451e-14
6.05451e-14
6.05451e-14
6.05451e-14
6.05451e-14
6.05451e-14
6.05451e-14
6.05451e-14
6.05451e-14
6.05451e-14
6.05451e-14
6.05451e-14
6.05451e-14
6.05451e-14
6.05451e-14
6.05451e-14
6.05451e-14
6.05451e-14
6.05451e-14
6.05451e-14
6.05451e-14
6.05451e-14
6.05451e-14
6.05451e-14
6.05451e-14
6.05451e-14
6.05451e-14
6.05451e-14
6.05451e-14
6.05451e-14
6.05451e-14
6.05451e-14
6.05451e-14
6.05451e-14
6.05451e-14
6.05451e-14
6.05451e-14
6.05451e-14
6.05451e-14
6.05451e-14
6.05451e-14
6.05451e-14
6.05451e-14
6.05451e-14
6.05451e-14
6.05451e-14
6.05451e-14
6.05451e-14
6.05451e-14
6.05451e-14
6.05451e-14
6.05451e-14
6.05451e-14
6.05451e-14
6.05451e-14
6.05451e-14
6.05451e-14
6.05451e-14
6.05451e-14
6.05451e-14
6.05451e-14
6.05451e-14
6.05451e-14
6.05451e-14
6.05451e-14
6.05451e-14
6.05451e-14
6.05451e-14
6.05451e-14
6.054510002e-14
6.054510007e-14
6.054510028e-14
6.054510111e-14
6.054510423e-14
6.054511523e-14
6.054515144e-14
6.054526239e-14
6.0545577e-14
6.054639674e-14
6.054833818e-14
6.055243989e-14
6.055987718e-14
6.057029963e-14
6.057368304e-14
6.057473173e-14
6.057582116e-14
6.057695357e-14
6.057813058e-14
6.057935379e-14
6.0580625e-14
6.058194617e-14
6.058331942e-14
6.058474701e-14
6.05862313e-14
6.058777479e-14
6.058938005e-14
6.059104983e-14
6.059278695e-14
6.059459444e-14
6.059647542e-14
6.059843321e-14
6.060047129e-14
6.060259332e-14
6.060480315e-14
6.060710483e-14
6.060950263e-14
6.061200104e-14
6.06146048e-14
6.06173189e-14
6.062014859e-14
6.062309943e-14
6.062617726e-14
6.062938827e-14
6.063273896e-14
6.063623622e-14
6.063988731e-14
6.064369992e-14
6.064768216e-14
6.065184259e-14
6.065619029e-14
6.066073485e-14
6.066548639e-14
6.067045566e-14
6.0675654e-14
6.068109343e-14
6.068678666e-14
6.069274715e-14
6.069898917e-14
6.070552781e-14
6.071237907e-14
6.071955987e-14
6.072708816e-14
6.073498295e-14
6.074326439e-14
6.07519538e-14
6.076107381e-14
6.077064837e-14
6.078070286e-14
6.079126419e-14
6.080236085e-14
6.081402304e-14
6.082628276e-14
6.08391739e-14
6.085273236e-14
6.086699617e-14
6.088200561e-14
6.089780332e-14
6.091443446e-14
6.093194685e-14
6.095039107e-14
6.096982069e-14
6.099029237e-14
6.101186604e-14
6.103460512e-14
6.105857663e-14
6.108385145e-14
6.111050448e-14
6.113861488e-14
6.116826624e-14
6.119954688e-14
6.123255e-14
6.126737399e-14
6.130412267e-14
6.134290553e-14
6.138383803e-14
6.142704186e-14
6.147264527e-14
6.152078335e-14
6.157159831e-14
6.162523988e-14
6.168186558e-14
6.174164109e-14
6.180474059e-14
6.187134716e-14
6.194165308e-14
6.20158603e-14
6.209418077e-14
6.217683687e-14
6.226406182e-14
6.235610008e-14
6.245320781e-14
6.255565327e-14
6.26637173e-14
6.277769375e-14
6.289788994e-14
6.302462714e-14
6.315824099e-14
6.329908207e-14
6.344751626e-14
6.360392534e-14
6.376870738e-14
6.394227729e-14
6.412506727e-14
6.431752732e-14
6.452012572e-14
6.47333495e-14
6.495770498e-14
6.519371815e-14
6.544193523e-14
6.570292309e-14
6.597726971e-14
6.626558466e-14
6.656849949e-14
6.688666816e-14
6.72207675e-14
6.757149755e-14
6.793958193e-14
6.832576828e-14
6.873082849e-14
6.915555909e-14
6.960078154e-14
7.006734246e-14
7.055611388e-14
7.106799351e-14
7.160390483e-14
7.216479733e-14
7.275164656e-14
7.336545426e-14
7.400724837e-14
7.467808309e-14
7.537903877e-14
7.611122192e-14
7.687576505e-14
7.76738265e-14
7.850659029e-14
7.937526581e-14
8.028108758e-14
8.122531485e-14
8.220923125e-14
8.323414433e-14
8.430138505e-14
8.541230727e-14
8.656828712e-14
8.777072237e-14
8.902103172e-14
9.032065406e-14
9.167104766e-14
9.307368931e-14
9.453007342e-14
9.604171106e-14
9.761012898e-14
9.923686853e-14
1.009234846e-13
1.026715443e-13
1.044826262e-13
1.063583186e-13
1.083002186e-13
1.103099306e-13
1.123890652e-13
1.145392375e-13
1.167620661e-13
1.190591713e-13
1.214321739e-13
1.238826937e-13
1.264123479e-13
1.2902275e-13
1.317155077e-13
1.344922218e-13
1.37354485e-13
1.403038797e-13
1.433419771e-13
1.464703357e-13
1.496904997e-13
1.530039977e-13
1.564123414e-13
1.599170244e-13
1.635195206e-13
1.672212836e-13
1.710237449e-13
1.749283133e-13
1.78936374e-13
1.830492872e-13
1.872683878e-13
1.915949846e-13
1.960303594e-13
2.005757671e-13
2.052324347e-13
2.100015615e-13
2.148843191e-13
2.19881851e-13
2.249952733e-13
2.302256747e-13
2.355741174e-13
2.410416376e-13
2.466292466e-13
2.523379314e-13
2.58168657e-13
2.641223667e-13
2.701999851e-13
2.764024189e-13
2.8273056e-13
2.891852876e-13
2.957674708e-13
3.024779717e-13
3.093176486e-13
3.162873595e-13
3.233879661e-13
3.306203373e-13
3.379853544e-13
3.454839149e-13
3.531169382e-13
3.608853705e-13
3.687901908e-13
3.768324165e-13
3.850131098e-13
3.933333846e-13
4.017944134e-13
4.103974346e-13
4.191437604e-13
4.280347847e-13
4.37071992e-13
4.46256966e-13
4.555913989e-13
4.650771014e-13
4.747160125e-13
4.845102102e-13
4.944619225e-13
5.045735385e-13
5.148476207e-13
5.252869168e-13
5.358943727e-13
5.466731455e-13
5.576266172e-13
5.687584088e-13
5.80072395e-13
5.915727188e-13
6.032638078e-13
6.151503894e-13
6.272375079e-13
6.395305414e-13
6.520352194e-13
6.647576408e-13
6.777042927e-13
6.908820696e-13
7.04298293e-13
7.179607318e-13
7.318776236e-13
7.460576955e-13
7.60510187e-13
7.752448721e-13
7.902720835e-13
8.056027358e-13
8.212483511e-13
8.372210845e-13
8.535337506e-13
8.701998516e-13
8.872336017e-13
9.046499639e-13
9.224646741e-13
9.406942675e-13
9.593561153e-13
9.784684556e-13
9.980504276e-13
1.018122107e-12
1.038704542e-12
1.059819786e-12
1.081490939e-12
1.103742183e-12
1.126598822e-12
1.150087321e-12
1.17423535e-12
1.199071822e-12
1.224626942e-12
1.250932257e-12
1.278020702e-12
1.30592665e-12
1.334685969e-12
1.364336077e-12
1.394915993e-12
1.426466395e-12
1.459029683e-12
1.492650044e-12
1.527373519e-12
1.563248074e-12
1.600323671e-12
1.638652348e-12
1.678288298e-12
1.719287953e-12
1.761710079e-12
1.805615864e-12
1.851069027e-12
1.898135919e-12
1.946885644e-12
1.997390177e-12
2.049724499e-12
2.103966743e-12
2.160198343e-12
2.218504211e-12
2.278972915e-12
2.341696891e-12
2.406772663e-12
2.474301098e-12
2.544387688e-12
2.617142867e-12
2.692682368e-12
2.771127633e-12
2.852606283e-12
2.93725265e-12
3.025208403e-12
3.116623264e-12
3.21165585e-12
3.310474658e-12
3.413259214e-12
3.520201438e-12
3.63150725e-12
3.747398473e-12
3.868115102e-12
3.993917994e-12
4.125092087e-12
4.261950244e-12
4.404837847e-12
4.554138311e-12
4.710279698e-12
4.873742654e-12
5.045069955e-12
5.224877987e-12
5.41387057e-12
5.612855595e-12
5.822765085e-12
6.044679367e-12
6.279856226e-12
6.529766071e-12
6.796134362e-12
7.080992817e-12
7.386741218e-12
7.716222026e-12
8.072810475e-12
8.460523358e-12
8.884150408e-12
9.349412963e-12
9.863155609e-12
1.043357765e-11
1.107051273e-11
1.178576651e-11
1.259352471e-11
1.351084588e-11
1.45582567e-11
1.576047108e-11
1.714725886e-11
1.875449501e-11
2.062542713e-11
2.281220637e-11
2.537773664e-11
2.839790806e-11
3.196429466e-11
3.618741235e-11
4.120065376e-11
4.716504003e-11
5.427495918e-11
6.276509523e-11
7.2918795e-11
8.507817008e-11
9.965629298e-11
1.171519207e-10
1.381672676e-10
1.634294583e-10
1.938164181e-10
2.30388118e-10
2.744242754e-10
3.274698392e-10
3.913898587e-10
4.68435663e-10
5.613246658e-10
6.733365856e-10
8.084294312e-10
9.713792792e-10
1.167948681e-09
1.405089503e-09
1.69118716e-09
2.036354579e-09
2.452785881e-09
2.955181717e-09
3.561260505e-09
4.292372582e-09
5.174237507e-09
6.237828584e-09
7.520433156e-09
9.066922454e-09
1.093127091e-08
1.317837189e-08
1.588620499e-08
1.914841924e-08
2.307740733e-08
2.780795755e-08
3.350158361e-08
4.035164665e-08
4.858939941e-08
5.849109878e-08
7.038634939e-08
8.466785723e-08
1.018027869e-07
1.223459282e-07
1.469548853e-07
1.76407502e-07
2.116217291e-07
2.536781183e-07
3.038450893e-07
3.636070632e-07
4.346954726e-07
5.191225584e-07
6.192177285e-07
7.376660984e-07
8.77548652e-07
1.042383266e-06
1.236165642e-06
1.463408995e-06
1.729181208e-06
2.039138024e-06
2.399550856e-06
2.817327828e-06
3.300026831e-06
3.855859671e-06
4.493686719e-06
5.223001948e-06
6.053908695e-06
6.997086977e-06
8.063753627e-06
9.265616893e-06
1.061482743e-05
1.212392783e-05
1.380580283e-05
1.567363247e-05
1.774085069e-05
2.002111013e-05
2.252825671e-05
2.527631457e-05
2.827948482e-05
3.155216355e-05
3.510899197e-05
3.896497084e-05
4.313446116e-05
4.763749896e-05
5.24842087e-05
5.771645601e-05
6.335315882e-05
6.94199291e-05
7.582110354e-05
8.264581125e-05
8.991441672e-05
9.764735688e-05
0.0001058645762
0.0001145825677
0.0001238158823
0.0001335769571
0.0001438720485
0.0001547006691
0.0001660510706
0.0001781204771
0.0001904213355
0.0002030884615
0.0002159899455
0.0002291099473
0.000241806664
0.00025385915
0.0002647508793
0.0002739360695
0.0002805568052
0.0002839588941
0.0002835005529
0.0002787538515
0.0002696217953
0.00025639328
0.0002396143231
0.0002204265178
0.0001997057598
0.000178612944
0.0001579181271
0.0001382724573
0.0001201115701
0.0001036801958
8.888716046e-05
7.577321855e-05
6.437001907e-05
5.454071739e-05
4.612366865e-05
3.895245331e-05
3.286582032e-05
2.77138702e-05
2.336092476e-05
1.969069237e-05
1.666283343e-05
1.411144809e-05
1.193260773e-05
1.010255441e-05
8.564159317e-06
7.26924618e-06
6.177720681e-06
5.256351459e-06
4.478552465e-06
3.819650869e-06
3.261494646e-06
2.788154446e-06
2.386298189e-06
2.044751442e-06
1.754137587e-06
1.50658104e-06
1.295461177e-06
1.115207616e-06
9.611295603e-07
8.292733629e-07
7.163035612e-07
6.194034624e-07
5.361920373e-07
4.646544252e-07
4.030837663e-07
3.50032538e-07
3.042717755e-07
2.647568906e-07
2.305990008e-07
2.010408586e-07
1.754366229e-07
1.532348444e-07
1.339641392e-07
1.172211132e-07
1.026601731e-07
8.998491991e-08
7.89408706e-08
6.930929678e-08
6.090200259e-08
5.3556894e-08
4.713421527e-08
4.151334849e-08
3.659008918e-08
3.227432431e-08
2.848805146e-08
2.516368688e-08
2.224261909e-08
1.967397081e-08
1.741353833e-08
1.542288185e-08
1.366854453e-08
1.212138138e-08
1.075598203e-08
9.550173584e-09
8.484592313e-09
7.542314046e-09
6.708535078e-09
5.970296378e-09
5.31624501e-09
4.736427575e-09
4.222111205e-09
3.765628304e-09
3.360241782e-09
3.000027954e-09
2.679774731e-09
2.394893013e-09
2.141339524e-09
1.915549549e-09
1.714378258e-09
1.53504949e-09
1.375111004e-09
1.232395352e-09
1.104985651e-09
9.911856134e-10
8.894932829e-10
7.985780122e-10
7.172602588e-10
6.444938474e-10
5.793503844e-10
5.210055574e-10
4.687270802e-10
4.218640824e-10
3.798377624e-10
3.42133149e-10
3.082918358e-10
2.779055698e-10
2.506105897e-10
2.260826248e-10
2.040324729e-10
1.842020902e-10
1.6636113e-10
1.503038786e-10
1.358465404e-10
1.228248313e-10
1.110918452e-10
1.005161597e-10
9.098015584e-11
8.237852482e-11
7.461694129e-11
6.761088405e-11
6.128458699e-11
5.55701056e-11
5.040648597e-11
4.573902461e-11
4.151860891e-11
3.770112927e-11
3.424695477e-11
3.112046533e-11
2.828963425e-11
2.57256553e-11
2.340260971e-11
2.12971685e-11
1.938832641e-11
1.765716388e-11
1.608663416e-11
1.466137267e-11
1.336752641e-11
1.219260104e-11
1.112532392e-11
1.015552138e-11
9.274008526e-12
8.472490551e-12
7.743474056e-12
7.080187505e-12
6.476509765e-12
5.926905929e-12
5.426369631e-12
4.970371199e-12
4.554811031e-12
4.17597765e-12
3.830509964e-12
3.515363296e-12
3.227778787e-12
2.965255849e-12
2.725527336e-12
2.506537164e-12
2.306420141e-12
2.123483767e-12
1.956191823e-12
1.803149551e-12
1.663090289e-12
1.534863388e-12
1.417423305e-12
1.309819753e-12
1.211188786e-12
1.120744748e-12
1.037772995e-12
9.616232987e-13
8.917038902e-13
8.274760634e-13
7.684492888e-13
7.141767904e-13
6.642515373e-13
6.183026125e-13
5.759919216e-13
5.370112085e-13
5.010793499e-13
4.679399002e-13
4.37358865e-13
4.091226794e-13
3.83036374e-13
3.589219081e-13
3.366166578e-13
3.159720406e-13
2.968522669e-13
2.791332049e-13
2.627013485e-13
2.474528793e-13
2.332928129e-13
2.201342227e-13
2.078975333e-13
1.965098779e-13
1.859045126e-13
1.760202838e-13
1.668011427e-13
1.581957031e-13
1.50156839e-13
1.426413168e-13
1.356094613e-13
1.290248503e-13
1.228540365e-13
1.170662939e-13
1.116333858e-13
1.065293542e-13
1.017303267e-13
9.72143405e-14
9.296118176e-14
8.895223892e-14
8.517036859e-14
8.159977312e-14
7.822588866e-14
7.503528291e-14
7.201556158e-14
6.915528291e-14
6.644387943e-14
6.387158643e-14
6.142937653e-14
5.910889971e-14
5.69024285e-14
5.480280777e-14
5.280340872e-14
5.089808675e-14
4.908114287e-14
4.734728833e-14
4.569161216e-14
4.410955147e-14
4.259686413e-14
4.11496038e-14
3.976409695e-14
3.843692176e-14
3.716488884e-14
3.594502336e-14
3.477454885e-14
3.365087208e-14
3.257156936e-14
3.153437385e-14
3.053716385e-14
2.957795215e-14
2.865487612e-14
2.776618861e-14
2.691024964e-14
2.608551862e-14
2.529054733e-14
2.452397329e-14
2.378451378e-14
2.307096027e-14
2.238217325e-14
2.171707749e-14
2.10746577e-14
2.045395444e-14
1.985406037e-14
1.927411684e-14
1.871331065e-14
1.81708711e-14
1.764606722e-14
1.71382053e-14
1.664662645e-14
1.617070447e-14
1.570984382e-14
1.526347772e-14
1.483106642e-14
1.441209556e-14
1.400607469e-14
1.361253586e-14
1.323103229e-14
1.286113719e-14
1.25024426e-14
1.215455835e-14
1.181711106e-14
1.148974327e-14
1.117211249e-14
1.086389051e-14
1.056476255e-14
1.027442663e-14
9.99259287e-15
9.718982895e-15
9.453329258e-15
9.195374891e-15
8.944872603e-15
8.701584601e-15
8.465282043e-15
8.235744615e-15
8.012760133e-15
7.796124174e-15
7.58563972e-15
7.381116825e-15
7.182372304e-15
6.989229438e-15
6.801517689e-15
6.619072441e-15
6.441734748e-15
6.269351095e-15
6.101773174e-15
5.938857674e-15
5.780466077e-15
5.626464463e-15
5.476723335e-15
5.331117438e-15
5.189525601e-15
5.051830574e-15
4.917918886e-15
4.787680694e-15
4.661009655e-15
4.537802794e-15
4.417960378e-15
4.301385802e-15
4.187985474e-15
4.077668708e-15
3.97034762e-15
3.865937031e-15
3.764354372e-15
3.665519592e-15
3.569355075e-15
3.475785553e-15
3.384738027e-15
3.296141693e-15
3.209927867e-15
3.126029913e-15
3.044383178e-15
2.964924925e-15
2.88759427e-15
2.812332123e-15
2.739081131e-15
2.66778562e-15
2.59839154e-15
2.530846418e-15
2.465099305e-15
2.401100727e-15
2.338802641e-15
2.27815839e-15
2.219122659e-15
2.161651431e-15
2.105701954e-15
2.051232694e-15
1.998203303e-15
1.946574581e-15
1.896308442e-15
1.847367878e-15
1.79971693e-15
1.753320653e-15
1.708145086e-15
1.664157226e-15
1.621324996e-15
1.579617219e-15
1.539003589e-15
1.499454649e-15
1.460941763e-15
1.423437093e-15
1.386913577e-15
1.351344902e-15
1.316705487e-15
1.282970459e-15
1.250115633e-15
1.218117492e-15
1.186953168e-15
1.156600423e-15
1.127037629e-15
1.098243757e-15
1.07019835e-15
1.042881514e-15
1.016273901e-15
9.903566907e-16
9.651115759e-16
9.405207506e-16
9.165668934e-16
8.932331546e-16
8.705031425e-16
8.483609109e-16
8.267909463e-16
8.057781556e-16
7.853078545e-16
7.65365756e-16
7.459379593e-16
7.270109387e-16
7.085715336e-16
6.906069378e-16
6.731046901e-16
6.560526643e-16
6.394390603e-16
6.232523945e-16
6.074814918e-16
5.921154761e-16
5.77143763e-16
5.625560509e-16
5.48342314e-16
5.344927939e-16
5.209979929e-16
5.078486664e-16
4.950358163e-16
4.82550684e-16
4.703847438e-16
4.585296966e-16
4.469774641e-16
4.357201819e-16
4.247501946e-16
4.140600493e-16
4.036424909e-16
3.934904558e-16
3.835970676e-16
3.739556314e-16
3.645596291e-16
3.554027147e-16
3.464787092e-16
3.377815969e-16
3.293055202e-16
3.210447757e-16
3.129938099e-16
3.051472156e-16
2.974997271e-16
2.900462172e-16
2.827816932e-16
2.757012931e-16
2.688002825e-16
2.620740507e-16
2.555181077e-16
2.491280809e-16
2.428997122e-16
2.368288542e-16
2.309114682e-16
2.251436207e-16
2.195214806e-16
2.140413167e-16
2.086994952e-16
2.034924764e-16
1.984168131e-16
1.934691473e-16
1.886462087e-16
1.839448114e-16
1.793618526e-16
1.748943098e-16
1.705392389e-16
1.662937718e-16
1.621551152e-16
1.581205475e-16
1.54187418e-16
1.503531442e-16
1.466152105e-16
1.429711661e-16
1.394186236e-16
1.359552571e-16
1.325788008e-16
1.292870471e-16
1.260778454e-16
1.229491005e-16
1.198987708e-16
1.169248676e-16
1.14025453e-16
1.111986391e-16
1.084425863e-16
1.057555023e-16
1.031356407e-16
1.005812998e-16
9.80908217e-17
9.566259071e-17
9.329503254e-17
9.098661318e-17
8.873583775e-17
8.654124956e-17
8.440142907e-17
8.231499294e-17
8.028059302e-17
7.82969155e-17
7.636267995e-17
7.447663849e-17
7.263757487e-17
7.08443037e-17
6.909566957e-17
6.73905463e-17
6.572783616e-17
6.410646909e-17
6.252540196e-17
6.098361789e-17
5.948012548e-17
5.801395819e-17
5.658417359e-17
5.51898528e-17
5.383009972e-17
5.250404054e-17
5.121082299e-17
4.994961584e-17
4.871960824e-17
4.752000919e-17
4.635004692e-17
4.520896837e-17
4.409603863e-17
4.301054039e-17
4.195177342e-17
4.091905405e-17
3.991171465e-17
3.892910312e-17
3.79705824e-17
3.703552999e-17
3.612333742e-17
3.523340984e-17
3.436516547e-17
3.351803522e-17
3.269146214e-17
3.188490105e-17
3.109781804e-17
3.032969009e-17
2.958000457e-17
2.884825889e-17
2.813396005e-17
2.743662428e-17
2.675577664e-17
2.609095068e-17
2.544168807e-17
2.480753831e-17
2.418805837e-17
2.358281243e-17
2.299137156e-17
2.241331338e-17
2.18482217e-17
2.129568606e-17
2.075530109e-17
2.02266656e-17
1.970938148e-17
1.92030519e-17
1.87072792e-17
1.822166201e-17
1.774579186e-17
1.72792498e-17
1.682160409e-17
1.316585262e-17
9.313639991e-18
6.594070123e-18
4.669826813e-18
3.305690001e-18
2.338070562e-18
1.651889845e-18
1.165648963e-18
8.214405287e-19
5.780660659e-19
4.062100297e-19
2.85022337e-19
1.996863846e-19
1.396843424e-19
9.755893176e-20
6.8029681e-20
4.736261974e-20
3.292111046e-20
2.284610599e-20
1.582880843e-20
1.094924095e-20
7.561762399e-21
5.213998178e-21
3.589511561e-21
2.467325523e-21
1.693387704e-21
1.160485353e-21
7.941324916e-22
5.426692424e-22
3.703288322e-22
2.523905778e-22
1.717977071e-22
1.168012427e-22
7.932180547e-23
5.381255593e-23
3.647145026e-23
2.469645953e-23
1.670951034e-23
1.129734103e-23
7.633244065e-24
5.154658358e-24
3.479254213e-24
2.347500404e-24
1.5834189e-24
1.067808596e-24
7.200030486e-25
4.854597898e-25
3.273281302e-25
2.207271857e-25
1.488674978e-25
1.004250797e-25
6.776519074e-26
4.574190283e-26
3.088748362e-26
2.086535184e-26
1.410113934e-26
9.533986967e-27
6.448953381e-27
4.364118895e-27
2.954544933e-27
2.00106398e-27
1.355791731e-27
9.188983708e-28
6.229610495e-28
4.224207114e-28
2.864758744e-28
1.942910211e-28
1.317644612e-28
8.934691328e-29
6.056856469e-29
4.104386186e-29
2.779875349e-29
1.881559069e-29
1.27251104e-29
8.597832125e-30
5.802687703e-30
3.911197315e-30
2.632423482e-30
1.768852148e-30
1.186428661e-30
7.941928815e-31
5.304889465e-31
3.535336764e-31
2.350408081e-31
1.558650523e-31
1.030991255e-31
6.802991917e-32
4.478996738e-32
2.943879326e-32
1.933039792e-32
1.269810315e-32
8.362766587e-33
5.539737043e-33
3.709992597e-33
2.528628482e-33
1.769215425e-33
1.283466992e-33
9.74437838e-34
7.780684349e-34
6.543824613e-34
5.768063637e-34
5.283105055e-34
4.982531719e-34
4.795537034e-34
4.680527188e-34
4.61077407e-34
4.569842529e-34
4.544944878e-34
4.526173273e-34
4.517399301e-34
4.511269829e-34
4.50664639e-34
4.503955421e-34
4.503580142e-34
4.503357307e-34
4.502788277e-34
4.502776995e-34
4.50012333e-34
4.499945716e-34
4.501380138e-34
4.498766556e-34
4.50134235e-34
4.499500699e-34
4.498381019e-34
4.499915e-34
4.49865398e-34
4.49863456e-34
4.498039878e-34
4.499487924e-34
4.498351572e-34
4.497095882e-34
4.496385782e-34
4.496859776e-34
4.496933617e-34
4.50011362e-34
4.498834232e-34
4.499505504e-34
4.499096424e-34
4.500782837e-34
4.499331769e-34
4.49828597e-34
4.498542054e-34
4.497513916e-34
4.495702986e-34
4.495888009e-34
4.49719756e-34
4.496148756e-34
4.496181046e-34
4.495572448e-34
4.495577489e-34
4.496564477e-34
4.497999769e-34
4.499214621e-34
4.498342606e-34
4.49573914e-34
4.496682436e-34
4.495772789e-34
4.49670126e-34
4.495889564e-34
4.495450247e-34
4.495340007e-34
4.495357704e-34
4.494409252e-34
4.495945697e-34
4.495468004e-34
4.495532013e-34
4.497302057e-34
4.497126123e-34
4.495317965e-34
4.495212637e-34
4.494201324e-34
4.494925839e-34
4.493886801e-34
4.49528542e-34
4.495285097e-34
4.495541431e-34
4.496539023e-34
4.496874402e-34
4.49552824e-34
4.495784081e-34
4.495475507e-34
4.495946851e-34
4.495283762e-34
4.49471543e-34
4.494417967e-34
4.494552507e-34
4.494259263e-34
4.496338388e-34
4.495092564e-34
4.494125841e-34
4.494721121e-34
4.494667645e-34
4.494714248e-34
4.494982472e-34
4.494093464e-34
4.495562337e-34
4.498124156e-34
4.497329548e-34
4.497748089e-34
4.496137829e-34
4.495108572e-34
4.495908443e-34
4.496449303e-34
4.495890206e-34
4.494448724e-34
4.497175504e-34
4.497570026e-34
4.494865654e-34
4.495194414e-34
4.497650558e-34
4.496027061e-34
4.494848037e-34
4.494316626e-34
4.495383723e-34
4.495462321e-34
4.494035507e-34
4.495132692e-34
4.496604505e-34
4.495582666e-34
4.494407301e-34
4.495270013e-34
4.495716503e-34
4.495930426e-34
4.495914943e-34
4.496809093e-34
4.494717759e-34
4.494876602e-34
4.496791375e-34
4.495568395e-34
4.495610045e-34
4.495574576e-34
4.495757138e-34
4.493651812e-34
4.498254625e-34
4.494378871e-34
4.495324221e-34
4.498753305e-34
4.496593058e-34
4.496334858e-34
4.493932726e-34
4.494439388e-34
4.494184826e-34
4.493863185e-34
4.49770233e-34
4.494820489e-34
4.49380846e-34
4.495098488e-34
4.49680548e-34
4.49514668e-34
4.494157733e-34
)
;

boundaryField
{
    inlet
    {
        type            fixedValue;
        value           uniform 0;
    }
    outlet
    {
        type            zeroGradient;
    }
    wall
    {
        type            empty;
    }
}


// ************************************************************************* //
