/*--------------------------------*- C++ -*----------------------------------*\
  =========                 |
  \\      /  F ield         | OpenFOAM: The Open Source CFD Toolbox
   \\    /   O peration     | Website:  https://openfoam.org
    \\  /    A nd           | Version:  7
     \\/     M anipulation  |
\*---------------------------------------------------------------------------*/
FoamFile
{
    version     2.0;
    format      ascii;
    class       volScalarField;
    location    "0.000558243009";
    object      CH3CO;
}
// * * * * * * * * * * * * * * * * * * * * * * * * * * * * * * * * * * * * * //

dimensions      [0 0 0 0 0 0 0];

internalField   nonuniform List<scalar> 
1500
(
2.166077602e-20
8.472546096e-20
1.748410085e-19
2.623767558e-19
3.275217359e-19
3.67203153e-19
3.877606336e-19
3.97038028e-19
4.007472482e-19
4.02078652e-19
4.025124934e-19
4.026420625e-19
4.026778407e-19
4.026870653e-19
4.026893244e-19
4.026898745e-19
4.026900254e-19
4.02690083e-19
4.026901155e-19
4.026901381e-19
4.02690155e-19
4.026901675e-19
4.026901762e-19
4.026901815e-19
4.026901837e-19
4.026901834e-19
4.02690181e-19
4.026901772e-19
4.026901727e-19
4.026901682e-19
4.026901643e-19
4.026901613e-19
4.026901596e-19
4.026901593e-19
4.026901603e-19
4.026901627e-19
4.026901661e-19
4.026901706e-19
4.026901759e-19
4.026901817e-19
4.02690188e-19
4.026901945e-19
4.026902011e-19
4.026902074e-19
4.026902135e-19
4.026902192e-19
4.026902245e-19
4.026902292e-19
4.026902335e-19
4.026902372e-19
4.026902406e-19
4.026902436e-19
4.026902463e-19
4.026902488e-19
4.02690251e-19
4.026902531e-19
4.02690255e-19
4.026902567e-19
4.026902583e-19
4.026902597e-19
4.026902608e-19
4.026902617e-19
4.026902622e-19
4.026902624e-19
4.026902622e-19
4.026902615e-19
4.026902604e-19
4.026902588e-19
4.026902568e-19
4.026902542e-19
4.026902512e-19
4.026902478e-19
4.02690244e-19
4.0269024e-19
4.026902357e-19
4.026902313e-19
4.026902268e-19
4.026902224e-19
4.026902182e-19
4.026902142e-19
4.026902105e-19
4.026902073e-19
4.026902046e-19
4.026902025e-19
4.02690201e-19
4.026902002e-19
4.026902e-19
4.026902006e-19
4.026902019e-19
4.026902039e-19
4.026902065e-19
4.026902098e-19
4.026902136e-19
4.026902179e-19
4.026902226e-19
4.026902277e-19
4.026902331e-19
4.026902386e-19
4.026902443e-19
4.026902499e-19
4.026902555e-19
4.026902609e-19
4.02690266e-19
4.026902709e-19
4.026902755e-19
4.026902797e-19
4.026902834e-19
4.026902868e-19
4.026902898e-19
4.026902924e-19
4.026902946e-19
4.026902965e-19
4.026902981e-19
4.026902994e-19
4.026903005e-19
4.026903015e-19
4.026903023e-19
4.02690303e-19
4.026903036e-19
4.026903042e-19
4.026903047e-19
4.026903052e-19
4.026903056e-19
4.026903061e-19
4.026903064e-19
4.026903068e-19
4.026903071e-19
4.026903073e-19
4.026903074e-19
4.026903075e-19
4.026903075e-19
4.026903074e-19
4.026903073e-19
4.02690307e-19
4.026903066e-19
4.026903062e-19
4.026903057e-19
4.02690305e-19
4.026903043e-19
4.026903034e-19
4.026903024e-19
4.026903013e-19
4.026903001e-19
4.026902986e-19
4.02690297e-19
4.026902952e-19
4.026902932e-19
4.02690291e-19
4.026902886e-19
4.02690286e-19
4.026902831e-19
4.026902801e-19
4.02690277e-19
4.026902736e-19
4.026902702e-19
4.026902666e-19
4.02690263e-19
4.026902594e-19
4.026902558e-19
4.026902522e-19
4.026902488e-19
4.026902454e-19
4.026902422e-19
4.026902392e-19
4.026902363e-19
4.026902338e-19
4.026902314e-19
4.026902294e-19
4.026902277e-19
4.026902263e-19
4.026902253e-19
4.026902247e-19
4.026902245e-19
4.026902247e-19
4.026902253e-19
4.026902264e-19
4.026902279e-19
4.026902299e-19
4.026902323e-19
4.026902352e-19
4.026902384e-19
4.02690242e-19
4.02690246e-19
4.026902502e-19
4.026902547e-19
4.026902593e-19
4.02690264e-19
4.026902686e-19
4.026902732e-19
4.026902775e-19
4.026902815e-19
4.026902851e-19
4.026902882e-19
4.026902906e-19
4.026902925e-19
4.026902936e-19
4.026902939e-19
4.026902935e-19
4.026902924e-19
4.026902905e-19
4.026902879e-19
4.026902846e-19
4.026902808e-19
4.026902764e-19
4.026902715e-19
4.026902662e-19
4.026902606e-19
4.026902547e-19
4.026902485e-19
4.026902422e-19
4.026902359e-19
4.026902296e-19
4.026902235e-19
4.026902177e-19
4.026902124e-19
4.026902077e-19
4.026902037e-19
4.026902006e-19
4.026901982e-19
4.026901966e-19
4.026901954e-19
4.026901943e-19
4.02690193e-19
4.026901907e-19
4.026901869e-19
4.026901808e-19
4.026901719e-19
4.026901595e-19
4.026901435e-19
4.026901238e-19
4.026901005e-19
4.026900745e-19
4.026900465e-19
4.026900181e-19
4.026899907e-19
4.026899659e-19
4.026899456e-19
4.026899314e-19
4.026899258e-19
4.026899353e-19
4.026899797e-19
4.026901214e-19
4.026905434e-19
4.026917375e-19
4.026949064e-19
4.027026942e-19
4.027201865e-19
4.027554212e-19
4.028167618e-19
4.029005172e-19
4.029298636e-19
4.02938494e-19
4.029474573e-19
4.029567721e-19
4.029664523e-19
4.029765116e-19
4.029869648e-19
4.029978285e-19
4.030091201e-19
4.030208588e-19
4.030330642e-19
4.030457574e-19
4.030589603e-19
4.030726958e-19
4.030869881e-19
4.031018626e-19
4.031173461e-19
4.031334667e-19
4.031502541e-19
4.031677394e-19
4.031859556e-19
4.032049374e-19
4.032247212e-19
4.032453458e-19
4.032668516e-19
4.032892815e-19
4.033126809e-19
4.033370975e-19
4.033625818e-19
4.033891868e-19
4.034169689e-19
4.034459875e-19
4.034763052e-19
4.035079883e-19
4.03541107e-19
4.035757351e-19
4.036119511e-19
4.036498374e-19
4.036894817e-19
4.037309763e-19
4.03774419e-19
4.038199132e-19
4.038675682e-19
4.039174995e-19
4.039698294e-19
4.040246871e-19
4.040822094e-19
4.041425407e-19
4.042058339e-19
4.042722506e-19
4.043419617e-19
4.044151479e-19
4.044919999e-19
4.045727198e-19
4.046575209e-19
4.047466285e-19
4.048402808e-19
4.049387296e-19
4.050422406e-19
4.051510945e-19
4.052655878e-19
4.053860334e-19
4.055127616e-19
4.056461211e-19
4.057864795e-19
4.059342248e-19
4.060897661e-19
4.062535346e-19
4.064259851e-19
4.066075965e-19
4.067988734e-19
4.070003473e-19
4.072125778e-19
4.074361539e-19
4.07671695e-19
4.079198532e-19
4.081813139e-19
4.084567974e-19
4.087470611e-19
4.090529001e-19
4.093751497e-19
4.097146867e-19
4.100724309e-19
4.104493475e-19
4.108464484e-19
4.112647941e-19
4.11705496e-19
4.121697179e-19
4.126586785e-19
4.131736528e-19
4.13715975e-19
4.142870397e-19
4.148883051e-19
4.155212941e-19
4.161875977e-19
4.168888761e-19
4.176268619e-19
4.184033622e-19
4.192202606e-19
4.200795199e-19
4.209831846e-19
4.219333828e-19
4.229323294e-19
4.239823277e-19
4.250857723e-19
4.262451515e-19
4.274630495e-19
4.287421492e-19
4.300852341e-19
4.31495191e-19
4.329750123e-19
4.345277981e-19
4.361567589e-19
4.378652173e-19
4.396566107e-19
4.415344928e-19
4.435025364e-19
4.455645347e-19
4.477244037e-19
4.499861837e-19
4.523540412e-19
4.548322705e-19
4.574252951e-19
4.601376695e-19
4.6297408e-19
4.659393461e-19
4.690384217e-19
4.722763955e-19
4.756584925e-19
4.791900736e-19
4.828766371e-19
4.867238181e-19
4.90737389e-19
4.949232591e-19
4.992874748e-19
5.038362186e-19
5.085758088e-19
5.135126981e-19
5.18653473e-19
5.240048525e-19
5.29573686e-19
5.35366952e-19
5.413917562e-19
5.476553289e-19
5.541650227e-19
5.609283101e-19
5.679527802e-19
5.752461357e-19
5.828161897e-19
5.906708618e-19
5.988181745e-19
6.07266249e-19
6.160233011e-19
6.250976366e-19
6.344976465e-19
6.442318022e-19
6.543086504e-19
6.647368077e-19
6.755249555e-19
6.866818335e-19
6.982162351e-19
7.101370002e-19
7.2245301e-19
7.351731804e-19
7.483064559e-19
7.618618028e-19
7.758482032e-19
7.902746481e-19
8.05150131e-19
8.204836414e-19
8.36284158e-19
8.525606423e-19
8.693220322e-19
8.865772354e-19
9.043351231e-19
9.226045239e-19
9.413942178e-19
9.607129303e-19
9.805693269e-19
1.000972007e-18
1.021929501e-18
1.043450262e-18
1.065542664e-18
1.088214997e-18
1.111475464e-18
1.135332177e-18
1.159793153e-18
1.184866315e-18
1.210559487e-18
1.236880395e-18
1.263836667e-18
1.29143583e-18
1.319685313e-18
1.348592451e-18
1.378164483e-18
1.408408557e-18
1.439331735e-18
1.470940999e-18
1.503243251e-18
1.536245329e-18
1.569954008e-18
1.604376009e-18
1.639518016e-18
1.675386679e-18
1.71198863e-18
1.7493305e-18
1.787418928e-18
1.82626058e-18
1.865862168e-18
1.906230467e-18
1.947372336e-18
1.989294739e-18
2.032004773e-18
2.075509685e-18
2.119816906e-18
2.164934076e-18
2.210869073e-18
2.257630046e-18
2.30522545e-18
2.353664077e-18
2.402955096e-18
2.453108091e-18
2.504133101e-18
2.556040663e-18
2.608841859e-18
2.662548359e-18
2.717172469e-18
2.772727187e-18
2.829226251e-18
2.886684195e-18
2.945116407e-18
3.004539188e-18
3.064969813e-18
3.126426596e-18
3.188928956e-18
3.252497484e-18
3.317154015e-18
3.382921704e-18
3.449825097e-18
3.517890212e-18
3.587144621e-18
3.657617534e-18
3.729339881e-18
3.802344405e-18
3.876665754e-18
3.952340574e-18
4.029407605e-18
4.107907785e-18
4.187884352e-18
4.269382949e-18
4.352451735e-18
4.4371415e-18
4.523505775e-18
4.61160096e-18
4.701486441e-18
4.793224717e-18
4.886881536e-18
4.982526021e-18
5.080230817e-18
5.180072227e-18
5.282130367e-18
5.386489314e-18
5.493237269e-18
5.602466703e-18
5.714274559e-18
5.828762408e-18
5.94603659e-18
6.066208435e-18
6.189394441e-18
6.315716478e-18
6.445301998e-18
6.578284235e-18
6.714802432e-18
6.855002053e-18
6.99903502e-18
7.147059943e-18
7.299242374e-18
7.455755062e-18
7.616778202e-18
7.782499757e-18
7.953115748e-18
8.128830572e-18
8.309857327e-18
8.496418195e-18
8.688744815e-18
8.887078645e-18
9.091671372e-18
9.302785376e-18
9.520694221e-18
9.745683173e-18
9.97804977e-18
1.021810443e-17
1.046617112e-17
1.07225881e-17
1.098770872e-17
1.126190232e-17
1.154555525e-17
1.183907194e-17
1.21428762e-17
1.245741261e-17
1.278314813e-17
1.312057393e-17
1.347020745e-17
1.383259483e-17
1.420831361e-17
1.459797593e-17
1.500223223e-17
1.542177546e-17
1.585734609e-17
1.630973787e-17
1.677980461e-17
1.726846814e-17
1.777672754e-17
1.830567012e-17
1.885648426e-17
1.943047451e-17
2.002907947e-17
2.06538928e-17
2.130668808e-17
2.19894482e-17
2.270440008e-17
2.345405573e-17
2.42412609e-17
2.506925266e-17
2.59417276e-17
2.686292267e-17
2.783771091e-17
2.887171508e-17
2.997144223e-17
3.114444345e-17
3.239950317e-17
3.374686389e-17
3.519849268e-17
3.67683974e-17
3.847300189e-17
4.033159125e-17
4.236684016e-17
4.460543985e-17
4.707884227e-17
4.982414318e-17
5.288513019e-17
5.631352675e-17
6.017046848e-17
6.452825541e-17
6.947243174e-17
7.510425417e-17
8.154362172e-17
8.893255297e-17
9.743931336e-17
1.072633139e-16
1.186409254e-16
1.318523804e-16
1.472299639e-16
1.651677372e-16
1.861330787e-16
2.106803841e-16
2.394673283e-16
2.732741702e-16
3.130266701e-16
3.598232971e-16
4.149675313e-16
4.800062168e-16
5.567751038e-16
6.474529308e-16
7.546256541e-16
8.813627405e-16
1.031307797e-15
1.20878625e-15
1.418933304e-15
1.667846029e-15
1.962764162e-15
2.312285106e-15
2.726619661e-15
3.217896307e-15
3.800523377e-15
4.49162032e-15
5.311531464e-15
6.284438368e-15
7.439090093e-15
8.809674665e-15
1.043685975e-14
1.236903635e-14
1.466380648e-14
1.738976427e-14
2.062863079e-14
2.447781563e-14
2.90534946e-14
3.449431269e-14
4.096584591e-14
4.86659867e-14
5.783145537e-14
6.874568842e-14
8.174841443e-14
9.724730425e-14
1.157321779e-13
1.377923723e-13
1.641380275e-13
1.956262478e-13
2.332933411e-13
2.783946679e-13
3.324540362e-13
3.973251154e-13
4.752680189e-13
5.690450869e-13
6.820410305e-13
8.184140574e-13
9.832864823e-13
1.182985743e-12
1.425349862e-12
1.720115384e-12
2.079410949e-12
2.518386169e-12
3.056013777e-12
3.716113449e-12
4.528658796e-12
5.531445187e-12
6.772215881e-12
8.311367616e-12
1.022538465e-11
1.261118194e-11
1.559157277e-11
1.932211247e-11
2.399960425e-11
2.987258088e-11
3.725408526e-11
4.653704507e-11
5.821243119e-11
7.289014086e-11
9.132204327e-11
1.144257057e-10
1.433057706e-10
1.792675462e-10
2.238139484e-10
2.786125872e-10
3.454152681e-10
4.259094423e-10
5.214841477e-10
6.329080473e-10
7.599513899e-10
9.010389627e-10
1.053081273e-09
1.211649853e-09
1.371573194e-09
1.527825298e-09
1.676422883e-09
1.815236883e-09
1.945095565e-09
2.071636402e-09
2.208024812e-09
2.377180504e-09
2.615616468e-09
2.974876887e-09
3.52724768e-09
4.359511442e-09
5.479922701e-09
6.979553079e-09
8.91658518e-09
1.128754101e-08
1.400103564e-08
1.687735521e-08
1.972571297e-08
2.245779893e-08
2.515587471e-08
2.80689716e-08
3.162085212e-08
3.612409497e-08
4.206697291e-08
4.983642939e-08
5.984901817e-08
7.195314498e-08
8.602331607e-08
1.014710284e-07
1.177670187e-07
1.333469263e-07
1.469519389e-07
1.573906345e-07
1.638060361e-07
1.657067087e-07
1.630346502e-07
1.560904674e-07
1.456538783e-07
1.325315285e-07
1.179778218e-07
1.029666323e-07
8.835323402e-08
7.474702807e-08
6.24940709e-08
5.163622785e-08
4.223534223e-08
3.429473134e-08
2.767701575e-08
2.223259571e-08
1.779358064e-08
1.419295273e-08
1.129040951e-08
8.964035718e-09
7.101055588e-09
5.64173315e-09
4.479098483e-09
3.543563473e-09
2.803361626e-09
2.218215402e-09
1.755768783e-09
1.390291475e-09
1.101412636e-09
8.732875395e-10
6.927235384e-10
5.499175285e-10
4.369324714e-10
3.474995938e-10
2.766691463e-10
2.205340034e-10
1.760107827e-10
1.406665376e-10
1.125816225e-10
9.024127498e-11
7.244998e-11
5.826388655e-11
4.693751091e-11
3.788173159e-11
3.063069883e-11
2.481577137e-11
2.014499577e-11
1.638694548e-11
1.335799343e-11
1.091228636e-11
8.933844369e-12
7.330332546e-12
6.028147985e-12
4.968542137e-12
4.104558102e-12
3.398609745e-12
2.820566522e-12
2.346236998e-12
1.956166902e-12
1.634685499e-12
1.369148147e-12
1.149334008e-12
9.669665378e-13
8.153312667e-13
6.889707236e-13
5.834406074e-13
4.951146379e-13
4.210281384e-13
3.587524767e-13
3.06294121e-13
2.620133559e-13
2.245587227e-13
1.928140548e-13
1.658556145e-13
1.429173441e-13
1.233626465e-13
1.066614248e-13
9.237136883e-14
8.012267346e-14
6.960553597e-14
6.055990823e-14
5.276708065e-14
4.604275737e-14
4.023134759e-14
3.520125013e-14
3.084095126e-14
2.705578912e-14
2.376526577e-14
2.090081002e-14
1.840391192e-14
1.622456417e-14
1.431995763e-14
1.26533875e-14
1.119333445e-14
9.912691473e-15
8.788111949e-15
7.799459321e-15
6.929341422e-15
6.16271605e-15
5.486556129e-15
4.889565167e-15
4.361934974e-15
3.895139087e-15
3.481756291e-15
3.115319863e-15
2.79018826e-15
2.501434369e-15
2.244750306e-15
2.016365562e-15
1.812976545e-15
1.631685768e-15
1.469949435e-15
1.325532047e-15
1.19646716e-15
1.081023409e-15
9.776749761e-16
8.850760018e-16
8.020382759e-16
7.275118977e-16
6.605683666e-16
6.003858646e-16
5.462363955e-16
4.974745674e-16
4.53527736e-16
4.138874325e-16
3.781018131e-16
3.457690316e-16
3.165314795e-16
2.900706352e-16
2.66102607e-16
2.443741775e-16
2.246593442e-16
2.067562244e-16
1.904843689e-16
1.756823742e-16
1.622057651e-16
1.499251529e-16
1.387245633e-16
1.284999687e-16
1.191580125e-16
1.106148486e-16
1.027951267e-16
9.563108484e-17
8.906174107e-17
8.303219578e-17
7.749297301e-17
7.239946099e-17
6.771141582e-17
6.339250722e-17
5.940990937e-17
5.573394702e-17
5.233778404e-17
4.919712968e-17
4.628997931e-17
4.359638975e-17
4.109828025e-17
3.87792379e-17
3.66243556e-17
3.462009351e-17
3.275413932e-17
3.101528963e-17
2.93933458e-17
2.787901215e-17
2.646382031e-17
2.514003307e-17
2.390059897e-17
2.273907311e-17
2.164956002e-17
2.062666851e-17
1.966546495e-17
1.876143003e-17
1.791041872e-17
1.710862982e-17
1.635257403e-17
1.563904465e-17
1.496509559e-17
1.43280153e-17
1.372530822e-17
1.315467513e-17
1.26139953e-17
1.210131326e-17
1.16148207e-17
1.115284917e-17
1.071385485e-17
1.029640939e-17
9.899189306e-18
9.520968232e-18
9.160607288e-18
8.817052272e-18
8.489320809e-18
8.176503003e-18
7.87774795e-18
7.59226718e-18
7.319322427e-18
7.058227779e-18
6.808342235e-18
6.569068416e-18
6.339844099e-18
6.120146471e-18
5.909485179e-18
5.707401076e-18
5.513464333e-18
5.327271276e-18
5.148442201e-18
4.9766205e-18
4.811470295e-18
4.652674793e-18
4.499938761e-18
4.352980359e-18
4.211534441e-18
4.075353858e-18
3.944203159e-18
3.817859111e-18
3.696112434e-18
3.578763094e-18
3.465622376e-18
3.356511682e-18
3.251261517e-18
3.149711633e-18
3.051708478e-18
2.957106553e-18
2.865768408e-18
2.777564099e-18
2.692368537e-18
2.610061857e-18
2.530532439e-18
2.453671971e-18
2.37937763e-18
2.307551658e-18
2.238100038e-18
2.170933956e-18
2.105968442e-18
2.04312124e-18
1.982314404e-18
1.923472714e-18
1.866524648e-18
1.811402687e-18
1.758040921e-18
1.706376902e-18
1.65635006e-18
1.607902806e-18
1.560980359e-18
1.515529822e-18
1.471499358e-18
1.428839562e-18
1.387503769e-18
1.347446686e-18
1.308626174e-18
1.270999027e-18
1.234525356e-18
1.199167032e-18
1.16488696e-18
1.131649203e-18
1.099418991e-18
1.068162984e-18
1.037849749e-18
1.008448242e-18
9.799290232e-19
9.522632188e-19
9.254239624e-19
8.993844507e-19
8.741187939e-19
8.496026373e-19
8.258114755e-19
8.027230667e-19
7.803148983e-19
7.585654312e-19
7.374542174e-19
7.169608951e-19
6.970666516e-19
6.777521848e-19
6.590001494e-19
6.407930318e-19
6.231136824e-19
6.05946296e-19
5.892751223e-19
5.730843883e-19
5.573600819e-19
5.420876367e-19
5.272528607e-19
5.128432383e-19
4.988457468e-19
4.852478571e-19
4.720374527e-19
4.592032552e-19
4.467339758e-19
4.346183834e-19
4.228459769e-19
4.114061271e-19
4.002894232e-19
3.894865262e-19
3.789877244e-19
3.687843651e-19
3.588672025e-19
3.492284433e-19
3.398594696e-19
3.307527324e-19
3.219003659e-19
3.132950292e-19
3.049292433e-19
2.967963642e-19
2.88889296e-19
2.812014995e-19
2.737269878e-19
2.664594243e-19
2.593928762e-19
2.525213909e-19
2.458393145e-19
2.393412737e-19
2.33022212e-19
2.26877251e-19
2.209009168e-19
2.150883518e-19
2.09434698e-19
2.039357892e-19
1.985871549e-19
1.933846e-19
1.883240749e-19
1.834014814e-19
1.786128519e-19
1.73954684e-19
1.694230207e-19
1.650145922e-19
1.607255607e-19
1.565527538e-19
1.524928272e-19
1.485422779e-19
1.446985487e-19
1.409585213e-19
1.373192022e-19
1.337779706e-19
1.303318472e-19
1.269782655e-19
1.237150196e-19
1.205392914e-19
1.17448387e-19
1.144405372e-19
1.115132877e-19
1.086642302e-19
1.05891486e-19
1.031926023e-19
1.005656094e-19
9.800847589e-20
9.551961806e-20
9.3096913e-20
9.073867426e-20
8.844274738e-20
8.620781636e-20
8.403227908e-20
8.19142838e-20
7.985238025e-20
7.784508295e-20
7.589084607e-20
7.398840136e-20
7.213620288e-20
7.033281306e-20
6.857676716e-20
6.686700549e-20
6.5202214e-20
6.358116337e-20
6.200268111e-20
6.046570551e-20
5.896900706e-20
5.751162059e-20
5.609235043e-20
5.471040523e-20
5.336456867e-20
5.205390089e-20
5.077750623e-20
4.95345144e-20
4.832385747e-20
4.714473594e-20
4.599638122e-20
4.487810285e-20
4.378888692e-20
4.272800542e-20
4.169466111e-20
4.068821482e-20
3.970786527e-20
3.875284644e-20
3.782249391e-20
3.691636013e-20
3.603365414e-20
3.517379011e-20
3.433616793e-20
3.352026298e-20
3.272529874e-20
3.195089874e-20
3.119645799e-20
3.046146899e-20
2.974545216e-20
2.904789955e-20
2.836830743e-20
2.770620692e-20
2.706116839e-20
2.643282905e-20
2.582066215e-20
2.522415734e-20
2.464289687e-20
2.407640828e-20
2.352462087e-20
2.298702115e-20
2.24632284e-20
2.195295283e-20
2.145564001e-20
2.097104974e-20
2.04986948e-20
2.003850152e-20
1.959004579e-20
1.915305951e-20
1.872701934e-20
1.831197921e-20
1.790753684e-20
1.751341527e-20
1.712921418e-20
1.675472136e-20
1.638975736e-20
1.6034023e-20
1.568744923e-20
1.534968634e-20
1.502048315e-20
1.46995661e-20
1.438683381e-20
1.408191848e-20
1.378479798e-20
1.349534368e-20
1.321319491e-20
1.293821782e-20
1.267016231e-20
1.24088653e-20
1.215412473e-20
1.190578048e-20
1.166375506e-20
1.142784959e-20
1.119787486e-20
1.097367183e-20
1.075512392e-20
1.054203403e-20
1.033430417e-20
1.013192038e-20
9.934588626e-21
9.742222418e-21
9.554695895e-21
9.37186416e-21
9.193687072e-21
9.019927865e-21
8.850592301e-21
8.6855021e-21
8.524549945e-21
8.367501742e-21
8.21445133e-21
8.065249451e-21
7.919770614e-21
7.777924441e-21
7.639591674e-21
7.504735352e-21
7.373278319e-21
7.245086776e-21
7.120141191e-21
6.998275236e-21
6.879418317e-21
6.763589254e-21
6.650610142e-21
6.540432332e-21
6.433031971e-21
6.328235177e-21
6.22604212e-21
6.126459881e-21
6.029366274e-21
5.934688289e-21
5.842327702e-21
5.752253397e-21
5.664392729e-21
5.578727329e-21
5.495163585e-21
5.413635575e-21
5.334173024e-21
5.256697287e-21
5.181141063e-21
5.10747979e-21
5.035656719e-21
4.965540532e-21
4.897133242e-21
4.830389088e-21
4.765333679e-21
4.701945048e-21
4.640032267e-21
4.579574582e-21
4.520613227e-21
4.463098602e-21
4.407004538e-21
4.352295511e-21
4.298931169e-21
4.246909363e-21
4.196199737e-21
4.146772914e-21
4.098497076e-21
4.051339917e-21
4.005371073e-21
3.960470465e-21
3.91666982e-21
3.873959583e-21
3.832230983e-21
3.791490949e-21
3.751680491e-21
3.712847111e-21
3.674889477e-21
3.637795963e-21
3.601578467e-21
3.566241622e-21
3.53171351e-21
3.497998201e-21
3.465042252e-21
3.432770892e-21
3.401168681e-21
3.370208775e-21
3.339925121e-21
3.31027645e-21
3.281285207e-21
3.252864748e-21
3.225069303e-21
3.197861852e-21
3.171160369e-21
3.14497596e-21
2.935471246e-21
2.716293274e-21
2.562198573e-21
2.454254422e-21
2.379655476e-21
2.328716626e-21
2.295667071e-21
2.275470627e-21
2.265507949e-21
2.263406033e-21
2.267071761e-21
2.276030105e-21
2.289090797e-21
2.305937641e-21
2.326144865e-21
2.349807648e-21
2.376482865e-21
2.406220424e-21
2.439210969e-21
2.475436961e-21
2.51492534e-21
2.557759722e-21
2.604238595e-21
2.654376494e-21
2.708401891e-21
2.766476571e-21
2.828798654e-21
2.895582854e-21
2.967011562e-21
3.043307434e-21
3.124693214e-21
3.211383627e-21
3.303607049e-21
3.401575901e-21
3.505506597e-21
3.615604405e-21
3.732070533e-21
3.855073935e-21
3.98477674e-21
4.121310914e-21
4.264776318e-21
4.415235586e-21
4.572711368e-21
4.737177923e-21
4.908570228e-21
5.086747674e-21
5.271499339e-21
5.462556741e-21
5.659624817e-21
5.862230463e-21
6.069936259e-21
6.282144517e-21
6.49825628e-21
6.717566323e-21
6.939304288e-21
7.162638673e-21
7.386744293e-21
7.610687574e-21
7.833558815e-21
8.054406414e-21
8.272326263e-21
8.486382689e-21
8.69568701e-21
8.899416516e-21
9.096776889e-21
9.287060298e-21
9.46963707e-21
9.643963623e-21
9.809590572e-21
9.966169412e-21
1.011345055e-20
1.025128789e-20
1.037962787e-20
1.049851638e-20
1.060808068e-20
1.070853066e-20
1.080014239e-20
1.088326483e-20
1.095828469e-20
1.102562935e-20
1.108577021e-20
1.113919073e-20
1.118638379e-20
1.122784946e-20
1.126408416e-20
1.12955673e-20
1.132277386e-20
1.134614176e-20
1.136609773e-20
1.138303378e-20
1.139731557e-20
1.140927899e-20
1.141922867e-20
1.142743893e-20
1.143415631e-20
1.143960009e-20
1.14439627e-20
1.14474122e-20
1.145009679e-20
1.145214195e-20
1.145365713e-20
1.145473462e-20
1.145545419e-20
1.145588243e-20
1.14560759e-20
1.145608216e-20
1.145594145e-20
1.145568719e-20
1.145534789e-20
1.145494709e-20
1.145450474e-20
1.145403741e-20
1.145355902e-20
1.145308073e-20
1.1452612e-20
1.145215992e-20
1.145173029e-20
1.14513271e-20
1.145095308e-20
1.145060968e-20
1.145029718e-20
1.145001496e-20
1.144976149e-20
1.14495346e-20
1.144933155e-20
1.144914927e-20
1.144898442e-20
1.14488335e-20
1.144869322e-20
1.144856033e-20
1.144843188e-20
1.144830534e-20
1.144817849e-20
1.144804967e-20
1.144791762e-20
1.144778157e-20
1.144764125e-20
1.14474967e-20
1.14473484e-20
1.144719709e-20
1.144704371e-20
1.144688943e-20
1.144673538e-20
1.144658305e-20
1.144643319e-20
1.144628706e-20
1.144614575e-20
1.144600988e-20
1.144588027e-20
1.144575707e-20
1.144564071e-20
1.144553137e-20
1.144542891e-20
1.144533295e-20
1.14452433e-20
1.144515953e-20
1.144508107e-20
1.144500783e-20
1.144493878e-20
1.144487402e-20
1.144481248e-20
1.144475423e-20
1.144469883e-20
1.144464568e-20
1.144459487e-20
1.144454591e-20
1.14444991e-20
1.14444538e-20
1.144441015e-20
1.144436829e-20
1.144432828e-20
1.144428965e-20
1.144425299e-20
1.1444218e-20
1.144418519e-20
1.144415415e-20
1.144412545e-20
1.144409892e-20
1.14440745e-20
1.144405284e-20
1.144403363e-20
1.144401725e-20
1.144400355e-20
1.144399266e-20
1.144398478e-20
1.144397994e-20
1.144397803e-20
1.144397907e-20
1.144398305e-20
1.144398998e-20
1.144399972e-20
1.144401207e-20
1.144402694e-20
1.144404401e-20
1.14440632e-20
1.144408406e-20
1.144410676e-20
1.14441304e-20
1.144415512e-20
1.144418041e-20
1.144420599e-20
1.144423147e-20
1.14442567e-20
1.144428118e-20
1.144430486e-20
1.144432718e-20
1.144434805e-20
1.144436725e-20
1.144438461e-20
1.144439992e-20
1.144441299e-20
1.144442383e-20
1.144443227e-20
1.144443831e-20
1.144444205e-20
1.144444319e-20
1.144444219e-20
1.144443868e-20
1.144443321e-20
1.144442553e-20
1.14444159e-20
1.144440447e-20
1.144439139e-20
1.144437674e-20
1.144436076e-20
1.14443436e-20
1.144432539e-20
1.144430634e-20
1.144428659e-20
1.144426629e-20
1.144424562e-20
1.144422472e-20
1.144420368e-20
1.144418267e-20
1.144416184e-20
1.144414122e-20
1.144412096e-20
1.144410116e-20
1.144408178e-20
1.144406308e-20
1.144404491e-20
1.144402743e-20
1.144401076e-20
1.144399463e-20
1.144397934e-20
1.144396489e-20
1.144395138e-20
1.144393846e-20
1.144392727e-20
1.144391836e-20
)
;

boundaryField
{
    inlet
    {
        type            fixedValue;
        value           uniform 0;
    }
    outlet
    {
        type            zeroGradient;
    }
    wall
    {
        type            empty;
    }
}


// ************************************************************************* //
