/*--------------------------------*- C++ -*----------------------------------*\
  =========                 |
  \\      /  F ield         | OpenFOAM: The Open Source CFD Toolbox
   \\    /   O peration     | Website:  https://openfoam.org
    \\  /    A nd           | Version:  7
     \\/     M anipulation  |
\*---------------------------------------------------------------------------*/
FoamFile
{
    version     2.0;
    format      ascii;
    class       volScalarField;
    location    "0.000558243009";
    object      CH3O2H;
}
// * * * * * * * * * * * * * * * * * * * * * * * * * * * * * * * * * * * * * //

dimensions      [0 0 0 0 0 0 0];

internalField   nonuniform List<scalar> 
1500
(
1.983636979e-14
7.758220661e-14
1.600962623e-13
2.404162938e-13
3.003942133e-13
3.370836896e-13
3.561827943e-13
3.648467809e-13
3.683295791e-13
3.695867016e-13
3.699986558e-13
3.701223648e-13
3.701566803e-13
3.701655328e-13
3.701676691e-13
3.701681539e-13
3.701682578e-13
3.70168279e-13
3.701682831e-13
3.701682839e-13
3.70168284e-13
3.701682841e-13
3.701682841e-13
3.701682841e-13
3.701682841e-13
3.701682841e-13
3.701682841e-13
3.701682841e-13
3.701682841e-13
3.701682841e-13
3.701682841e-13
3.701682841e-13
3.701682841e-13
3.701682841e-13
3.701682841e-13
3.701682841e-13
3.701682841e-13
3.701682841e-13
3.701682841e-13
3.701682841e-13
3.701682841e-13
3.701682841e-13
3.701682841e-13
3.701682841e-13
3.701682841e-13
3.701682841e-13
3.701682842e-13
3.701682842e-13
3.701682842e-13
3.701682842e-13
3.701682842e-13
3.701682842e-13
3.701682842e-13
3.701682842e-13
3.701682842e-13
3.701682842e-13
3.701682842e-13
3.701682842e-13
3.701682842e-13
3.701682842e-13
3.701682842e-13
3.701682842e-13
3.701682842e-13
3.701682842e-13
3.701682842e-13
3.701682842e-13
3.701682842e-13
3.701682842e-13
3.701682842e-13
3.701682842e-13
3.701682842e-13
3.701682842e-13
3.701682842e-13
3.701682842e-13
3.701682842e-13
3.701682842e-13
3.701682841e-13
3.701682841e-13
3.701682841e-13
3.701682841e-13
3.701682841e-13
3.701682841e-13
3.701682841e-13
3.701682841e-13
3.701682841e-13
3.701682841e-13
3.701682841e-13
3.701682841e-13
3.701682841e-13
3.701682841e-13
3.701682841e-13
3.701682841e-13
3.701682841e-13
3.701682841e-13
3.701682841e-13
3.701682841e-13
3.701682842e-13
3.701682842e-13
3.701682842e-13
3.701682842e-13
3.701682842e-13
3.701682842e-13
3.701682842e-13
3.701682842e-13
3.701682842e-13
3.701682842e-13
3.701682842e-13
3.701682842e-13
3.701682842e-13
3.701682842e-13
3.701682843e-13
3.701682843e-13
3.701682843e-13
3.701682843e-13
3.701682843e-13
3.701682843e-13
3.701682843e-13
3.701682843e-13
3.701682843e-13
3.701682843e-13
3.701682843e-13
3.701682843e-13
3.701682843e-13
3.701682843e-13
3.701682843e-13
3.701682843e-13
3.701682843e-13
3.701682843e-13
3.701682843e-13
3.701682843e-13
3.701682843e-13
3.701682843e-13
3.701682843e-13
3.701682843e-13
3.701682843e-13
3.701682843e-13
3.701682843e-13
3.701682843e-13
3.701682843e-13
3.701682843e-13
3.701682843e-13
3.701682843e-13
3.701682843e-13
3.701682842e-13
3.701682842e-13
3.701682842e-13
3.701682842e-13
3.701682842e-13
3.701682842e-13
3.701682842e-13
3.701682842e-13
3.701682842e-13
3.701682842e-13
3.701682842e-13
3.701682842e-13
3.701682842e-13
3.701682842e-13
3.701682842e-13
3.701682842e-13
3.701682842e-13
3.701682842e-13
3.701682842e-13
3.701682842e-13
3.701682841e-13
3.701682841e-13
3.701682841e-13
3.701682841e-13
3.701682841e-13
3.701682841e-13
3.701682841e-13
3.701682841e-13
3.701682841e-13
3.701682841e-13
3.701682841e-13
3.701682841e-13
3.701682841e-13
3.701682841e-13
3.701682841e-13
3.701682841e-13
3.701682841e-13
3.701682841e-13
3.701682841e-13
3.701682842e-13
3.701682842e-13
3.701682842e-13
3.701682842e-13
3.701682842e-13
3.701682842e-13
3.701682842e-13
3.701682842e-13
3.701682842e-13
3.701682842e-13
3.701682842e-13
3.701682842e-13
3.701682842e-13
3.701682842e-13
3.701682842e-13
3.701682842e-13
3.701682842e-13
3.701682842e-13
3.701682842e-13
3.701682842e-13
3.701682842e-13
3.701682842e-13
3.701682842e-13
3.701682842e-13
3.701682842e-13
3.701682842e-13
3.701682842e-13
3.701682841e-13
3.701682841e-13
3.701682841e-13
3.701682841e-13
3.701682841e-13
3.701682841e-13
3.701682841e-13
3.701682841e-13
3.701682841e-13
3.701682841e-13
3.701682841e-13
3.701682841e-13
3.701682841e-13
3.701682841e-13
3.701682841e-13
3.70168284e-13
3.70168284e-13
3.70168284e-13
3.70168284e-13
3.70168284e-13
3.701682839e-13
3.701682839e-13
3.701682839e-13
3.701682838e-13
3.701682838e-13
3.701682838e-13
3.701682838e-13
3.701682842e-13
3.701682859e-13
3.701682921e-13
3.701683138e-13
3.701683851e-13
3.701686061e-13
3.701692485e-13
3.701709944e-13
3.701754127e-13
3.701857581e-13
3.702079519e-13
3.702508372e-13
3.703229496e-13
3.704194629e-13
3.704557486e-13
3.704659314e-13
3.704765062e-13
3.704874959e-13
3.704989176e-13
3.705107881e-13
3.705231255e-13
3.705359496e-13
3.705492817e-13
3.705631448e-13
3.705775629e-13
3.705925616e-13
3.706081675e-13
3.706244086e-13
3.706413146e-13
3.706589164e-13
3.706772468e-13
3.706963402e-13
3.707162329e-13
3.707369631e-13
3.707585713e-13
3.707810998e-13
3.708045935e-13
3.708290997e-13
3.708546682e-13
3.708813516e-13
3.709092054e-13
3.70938288e-13
3.709686614e-13
3.710003906e-13
3.710335444e-13
3.710681955e-13
3.711044204e-13
3.711422999e-13
3.711819196e-13
3.712233694e-13
3.712667445e-13
3.713121453e-13
3.713596777e-13
3.714094536e-13
3.71461591e-13
3.715162146e-13
3.715734557e-13
3.716334531e-13
3.716963533e-13
3.717623106e-13
3.718314879e-13
3.719040572e-13
3.719801997e-13
3.720601064e-13
3.72143979e-13
3.722320297e-13
3.723244827e-13
3.724215737e-13
3.725235514e-13
3.726306778e-13
3.727432285e-13
3.72861494e-13
3.729857802e-13
3.731164087e-13
3.732537182e-13
3.733980649e-13
3.735498235e-13
3.737093878e-13
3.738771719e-13
3.74053611e-13
3.742391622e-13
3.744343056e-13
3.746395455e-13
3.748554108e-13
3.75082457e-13
3.753212665e-13
3.755724501e-13
3.758366481e-13
3.761145317e-13
3.764068039e-13
3.767142009e-13
3.770374936e-13
3.773774888e-13
3.777350302e-13
3.781110006e-13
3.785063225e-13
3.789219603e-13
3.793589211e-13
3.798182569e-13
3.803010654e-13
3.808084924e-13
3.813417327e-13
3.819020321e-13
3.82490689e-13
3.831090561e-13
3.837585418e-13
3.844406125e-13
3.851567936e-13
3.859086718e-13
3.866978967e-13
3.875261824e-13
3.883953094e-13
3.893071264e-13
3.902635522e-13
3.912665769e-13
3.923182644e-13
3.934207538e-13
3.945762611e-13
3.957870809e-13
3.970555886e-13
3.983842413e-13
3.997755802e-13
4.012322318e-13
4.027569097e-13
4.043524159e-13
4.060216429e-13
4.077675745e-13
4.095932877e-13
4.115019539e-13
4.134968401e-13
4.155813104e-13
4.177588271e-13
4.200329516e-13
4.224073457e-13
4.248857725e-13
4.274720971e-13
4.301702874e-13
4.329844149e-13
4.359186554e-13
4.389772889e-13
4.421647006e-13
4.454853807e-13
4.489439247e-13
4.525450335e-13
4.562935129e-13
4.601942738e-13
4.642523316e-13
4.684728054e-13
4.72860918e-13
4.774219944e-13
4.821614612e-13
4.870848456e-13
4.921977739e-13
4.975059701e-13
5.030152547e-13
5.087315425e-13
5.146608414e-13
5.208092497e-13
5.271829544e-13
5.337882289e-13
5.406314303e-13
5.477189971e-13
5.550574464e-13
5.626533707e-13
5.705134356e-13
5.78644376e-13
5.870529932e-13
5.957461515e-13
6.047307745e-13
6.140138418e-13
6.236023853e-13
6.335034851e-13
6.43724266e-13
6.542718936e-13
6.651535697e-13
6.763765293e-13
6.879480356e-13
6.998753763e-13
7.121658596e-13
7.248268098e-13
7.378655636e-13
7.512894656e-13
7.651058646e-13
7.793221099e-13
7.939455467e-13
8.08983513e-13
8.244433359e-13
8.40332328e-13
8.566577839e-13
8.734269773e-13
8.906471583e-13
9.083255502e-13
9.264693472e-13
9.450857124e-13
9.64181776e-13
9.837646332e-13
1.003841344e-12
1.02441893e-12
1.045504379e-12
1.067104638e-12
1.089226619e-12
1.1118772e-12
1.135063221e-12
1.158791493e-12
1.183068797e-12
1.207901884e-12
1.233297486e-12
1.259262316e-12
1.285803072e-12
1.312926447e-12
1.340639132e-12
1.368947824e-12
1.397859236e-12
1.427380105e-12
1.4575172e-12
1.488277337e-12
1.519667388e-12
1.551694291e-12
1.584365072e-12
1.61768685e-12
1.651666861e-12
1.686312468e-12
1.721631185e-12
1.757630694e-12
1.794318862e-12
1.831703768e-12
1.869793725e-12
1.9085973e-12
1.948123343e-12
1.988381014e-12
2.029379811e-12
2.071129598e-12
2.113640637e-12
2.156923622e-12
2.20098971e-12
2.245850563e-12
2.291518375e-12
2.338005921e-12
2.385326591e-12
2.433494437e-12
2.482524212e-12
2.532431417e-12
2.583232354e-12
2.634944166e-12
2.687584894e-12
2.741173531e-12
2.795730072e-12
2.851275575e-12
2.907832218e-12
2.965423361e-12
3.024073608e-12
3.083808873e-12
3.144656448e-12
3.206645071e-12
3.269805e-12
3.334168083e-12
3.399767842e-12
3.466639546e-12
3.534820294e-12
3.604349102e-12
3.675266985e-12
3.747617054e-12
3.821444601e-12
3.896797199e-12
3.9737248e-12
4.052279836e-12
4.132517323e-12
4.214494972e-12
4.298273298e-12
4.383915738e-12
4.471488767e-12
4.561062026e-12
4.652708445e-12
4.746504376e-12
4.842529736e-12
4.940868143e-12
5.041607071e-12
5.144837983e-12
5.250656529e-12
5.359162686e-12
5.470460905e-12
5.584660317e-12
5.701874908e-12
5.822223718e-12
5.94583105e-12
6.072826672e-12
6.203346041e-12
6.33753053e-12
6.475527666e-12
6.617491377e-12
6.763582263e-12
6.913967874e-12
7.068822987e-12
7.228329963e-12
7.392679078e-12
7.562068898e-12
7.736706655e-12
7.916808709e-12
8.102601009e-12
8.294319565e-12
8.492210976e-12
8.696533041e-12
8.907555417e-12
9.125560339e-12
9.350843419e-12
9.583714528e-12
9.824498787e-12
1.007353766e-11
1.03311902e-11
1.059783442e-11
1.087386892e-11
1.115971457e-11
1.145581665e-11
1.176264704e-11
1.208070693e-11
1.241052978e-11
1.275268477e-11
1.310778078e-11
1.34764709e-11
1.385945774e-11
1.425749942e-11
1.467141659e-11
1.510210058e-11
1.555052268e-11
1.601774511e-11
1.650493361e-11
1.70133721e-11
1.754447972e-11
1.809983068e-11
1.868117733e-11
1.9290477e-11
1.992992333e-11
2.060198273e-11
2.130943689e-11
2.20554324e-11
2.284353855e-11
2.367781487e-11
2.456288984e-11
2.550405289e-11
2.650736172e-11
2.757976763e-11
2.872926188e-11
2.996504669e-11
3.129773486e-11
3.273958305e-11
3.430476426e-11
3.60096862e-11
3.787336324e-11
3.991785097e-11
4.216875401e-11
4.465581941e-11
4.741362991e-11
5.048241418e-11
5.390899354e-11
5.77478883e-11
6.20626105e-11
6.692717464e-11
7.242786299e-11
7.866528843e-11
8.575680494e-11
9.383932429e-11
1.030726073e-10
1.136431097e-10
1.257684755e-10
1.397027875e-10
1.557427017e-10
1.742346146e-10
1.955830362e-10
2.202603732e-10
2.488183568e-10
2.819013926e-10
3.202621555e-10
3.64779805e-10
4.164812602e-10
4.765660487e-10
5.464353246e-10
6.277257562e-10
7.223490945e-10
8.325383729e-10
9.609018424e-10
1.110485932e-09
1.284848736e-09
1.488145775e-09
1.72523007e-09
2.001768892e-09
2.324379955e-09
2.700790241e-09
3.140021191e-09
3.65260458e-09
4.250834091e-09
4.949058396e-09
5.764022484e-09
6.715265016e-09
7.825580707e-09
9.121558111e-09
1.063420476e-08
1.239967343e-08
1.446010524e-08
1.68646077e-08
1.967038828e-08
2.294406693e-08
2.676319408e-08
3.121800419e-08
3.641343841e-08
4.247147399e-08
4.953380195e-08
5.776489902e-08
6.735554315e-08
7.85268264e-08
9.153472125e-08
1.066752585e-07
1.242903755e-07
1.447744898e-07
1.685818507e-07
1.962347063e-07
2.283323129e-07
2.655607861e-07
3.087037598e-07
3.58653777e-07
4.164242719e-07
4.831619299e-07
5.601591161e-07
6.488659433e-07
7.509014171e-07
8.680629347e-07
1.002333238e-06
1.155883737e-06
1.331072938e-06
1.53043854e-06
1.756681636e-06
2.012641408e-06
2.301258754e-06
2.625527437e-06
2.988431769e-06
3.392870316e-06
3.841565964e-06
4.336963542e-06
4.881117397e-06
5.47557239e-06
6.121242937e-06
6.818295617e-06
7.566041395e-06
8.362843632e-06
9.206047537e-06
1.009193567e-05
1.101571258e-05
1.197151961e-05
1.295247918e-05
1.395076538e-05
1.49576966e-05
1.59638443e-05
1.695915144e-05
1.793305381e-05
1.887459764e-05
1.977254606e-05
2.061546837e-05
2.139180355e-05
2.208988938e-05
2.269794505e-05
2.320399141e-05
2.359568888e-05
2.385998556e-05
2.398303355e-05
2.394905152e-05
2.37399782e-05
2.333441862e-05
2.270738884e-05
2.184161829e-05
2.070424236e-05
1.927007008e-05
1.752403202e-05
1.547333837e-05
1.316433311e-05
1.070005278e-05
8.240345182e-06
5.98111752e-06
4.098389835e-06
2.682410328e-06
1.697751616e-06
1.070619882e-06
6.762377728e-07
4.295669113e-07
2.734131235e-07
1.759668162e-07
1.141544975e-07
7.469532643e-08
4.917481244e-08
3.275087898e-08
2.202344905e-08
1.496100541e-08
1.027377351e-08
7.137470944e-09
5.021016372e-09
3.572450659e-09
2.580189505e-09
1.886526602e-09
1.398597375e-09
1.049310706e-09
7.956634926e-10
6.08906707e-10
4.696746474e-10
3.637313462e-10
2.825221086e-10
2.202173452e-10
1.721297431e-10
1.348475992e-10
1.058346694e-10
8.317887012e-11
6.544650977e-11
5.154752187e-11
4.06247198e-11
3.217172092e-11
2.550778414e-11
2.019220555e-11
1.600512413e-11
1.270284548e-11
1.009455378e-11
8.031377933e-12
6.397150756e-12
5.102337756e-12
4.073378802e-12
3.255598799e-12
2.604990057e-12
2.086853075e-12
1.673791989e-12
1.344153832e-12
1.080808491e-12
8.701922025e-13
7.015561052e-13
5.66375028e-13
4.578818137e-13
3.707001962e-13
3.005551577e-13
2.440442543e-13
1.984569625e-13
1.61631852e-13
1.318436151e-13
1.077136282e-13
8.813910046e-14
7.223690675e-14
5.929902483e-14
4.875715134e-14
4.015458211e-14
3.312384595e-14
2.736889841e-14
2.265093269e-14
1.877706166e-14
1.55912812e-14
1.296724733e-14
1.080249711e-14
9.013819523e-15
7.533543431e-15
6.306557487e-15
5.287914849e-15
4.440905654e-15
3.735504007e-15
3.147115165e-15
2.65556362e-15
2.244274707e-15
1.899611876e-15
1.610339305e-15
1.367185585e-15
1.16248898e-15
9.899086282e-16
8.441891097e-16
7.209682465e-16
6.166199913e-16
5.281258164e-16
4.529692884e-16
3.890495288e-16
3.346100788e-16
2.881803454e-16
2.485273363e-16
2.14615821e-16
1.855754017e-16
1.606732571e-16
1.392915525e-16
1.209086897e-16
1.050837248e-16
9.144339958e-17
7.967133461e-17
6.949901097e-17
6.069823512e-17
5.307483434e-17
4.646337502e-17
4.072273204e-17
3.573236729e-17
3.138919993e-17
2.760497084e-17
2.430402047e-17
2.142141301e-17
1.89013508e-17
1.669583252e-17
1.476351629e-17
1.306875523e-17
1.158077836e-17
1.027299405e-17
9.122397114e-18
8.109063413e-18
7.215718664e-18
6.427370082e-18
5.730991364e-18
5.115253005e-18
4.570291139e-18
4.087509223e-18
3.659407682e-18
3.279437435e-18
2.941873827e-18
2.641707987e-18
2.374553133e-18
2.136563671e-18
1.924365268e-18
1.734994366e-18
1.56584579e-18
1.414627339e-18
1.279320385e-18
1.158145645e-18
1.04953344e-18
9.520977971e-19
8.646139118e-19
7.859984876e-19
7.152925884e-19
6.516466599e-19
5.943074382e-19
5.426064966e-19
4.959502159e-19
4.538109961e-19
4.157195464e-19
3.812581185e-19
3.500545603e-19
3.217770881e-19
2.961296853e-19
2.728480508e-19
2.516960272e-19
2.3246245e-19
2.149583667e-19
1.990145788e-19
1.844794701e-19
1.712170835e-19
1.591054192e-19
1.480349263e-19
1.379071651e-19
1.286336197e-19
1.201346446e-19
1.123385273e-19
1.051806554e-19
9.860277506e-20
9.255233103e-20
8.698187812e-20
8.184855659e-20
7.711362393e-20
7.274203697e-20
6.870207826e-20
6.496502222e-20
6.150483635e-20
5.82979139e-20
5.532283421e-20
5.256014806e-20
4.999218509e-20
4.760288102e-20
4.53776225e-20
4.330310765e-20
4.136722078e-20
3.955891969e-20
3.786813409e-20
3.628567438e-20
3.480314922e-20
3.341289135e-20
3.210789066e-20
3.088173368e-20
2.972854911e-20
2.864295847e-20
2.762003151e-20
2.665524597e-20
2.5744451e-20
2.488383421e-20
2.406989171e-20
2.329940098e-20
2.25693963e-20
2.187714643e-20
2.122013431e-20
2.059603873e-20
2.000271756e-20
1.943819259e-20
1.890063566e-20
1.838835611e-20
1.789978931e-20
1.743348626e-20
1.698810402e-20
1.65623971e-20
1.61552095e-20
1.576546752e-20
1.539217317e-20
1.50343981e-20
1.469127814e-20
1.436200827e-20
1.404583795e-20
1.374206698e-20
1.345004157e-20
1.316915084e-20
1.289882358e-20
1.263852523e-20
1.238775519e-20
1.21460443e-20
1.19129525e-20
1.168806678e-20
1.147099916e-20
1.126138495e-20
1.105888109e-20
1.086316459e-20
1.067393117e-20
1.049089398e-20
1.031378236e-20
1.014234079e-20
9.976327823e-21
9.815515204e-21
9.659686962e-21
9.508638615e-21
9.362176433e-21
9.220116746e-21
9.082285314e-21
8.948516722e-21
8.818653843e-21
8.692547322e-21
8.570055103e-21
8.451042e-21
8.33537928e-21
8.222944279e-21
8.113620058e-21
8.007295061e-21
7.903862812e-21
7.803221637e-21
7.705274382e-21
7.609928178e-21
7.517094193e-21
7.426687424e-21
7.338626488e-21
7.252833429e-21
7.169233543e-21
7.087755207e-21
7.008329724e-21
6.93089117e-21
6.855376262e-21
6.781724224e-21
6.709876661e-21
6.639777452e-21
6.57137263e-21
6.504610292e-21
6.439440492e-21
6.375815156e-21
6.31368799e-21
6.253014408e-21
6.193751448e-21
6.135857702e-21
6.079293247e-21
6.02401958e-21
5.969999557e-21
5.917197338e-21
5.865578324e-21
5.815109113e-21
5.76575744e-21
5.717492144e-21
5.670283114e-21
5.624101245e-21
5.578918399e-21
5.53470737e-21
5.491441845e-21
5.449096367e-21
5.407646306e-21
5.367067822e-21
5.327337843e-21
5.288434026e-21
5.250334733e-21
5.21301901e-21
5.176466554e-21
5.140657694e-21
5.105573364e-21
5.071195083e-21
5.037504939e-21
5.004485561e-21
4.972120102e-21
4.94039222e-21
4.909286063e-21
4.878786252e-21
4.848877861e-21
4.819546402e-21
4.790777811e-21
4.762558437e-21
4.734875024e-21
4.707714696e-21
4.681064949e-21
4.654913637e-21
4.629248956e-21
4.604059441e-21
4.579333948e-21
4.555061646e-21
4.531232005e-21
4.507834789e-21
4.484860047e-21
4.462298103e-21
4.440139545e-21
4.418375217e-21
4.396996213e-21
4.37599387e-21
4.355359759e-21
4.335085675e-21
4.315163634e-21
4.295585867e-21
4.276344806e-21
4.257433088e-21
4.238843542e-21
4.220569185e-21
4.202603216e-21
4.184939012e-21
4.16757012e-21
4.150490255e-21
4.133693292e-21
4.117173265e-21
4.100924357e-21
4.084940903e-21
4.069217377e-21
4.053748395e-21
4.038528707e-21
4.023553193e-21
4.008816863e-21
3.994314851e-21
3.980042411e-21
3.965994912e-21
3.952167838e-21
3.93855678e-21
3.92515744e-21
3.911965624e-21
3.898977237e-21
3.886188284e-21
3.873594866e-21
3.861193176e-21
3.848979497e-21
3.836950203e-21
3.82510175e-21
3.813430678e-21
3.80193361e-21
3.790607247e-21
3.779448365e-21
3.768453816e-21
3.757620523e-21
3.746945482e-21
3.736425757e-21
3.726058478e-21
3.715840839e-21
3.7057701e-21
3.695843581e-21
3.686058663e-21
3.676412786e-21
3.666903445e-21
3.657528193e-21
3.648284636e-21
3.639170432e-21
3.630183289e-21
3.62132097e-21
3.61258128e-21
3.603962078e-21
3.595461265e-21
3.587076788e-21
3.57880664e-21
3.570648852e-21
3.562601502e-21
3.554662706e-21
3.546830621e-21
3.539103442e-21
3.5314794e-21
3.523956766e-21
3.516533845e-21
3.509208977e-21
3.501980537e-21
3.494846933e-21
3.487806606e-21
3.480858027e-21
3.473999701e-21
3.467230159e-21
3.460547965e-21
3.453951712e-21
3.447440018e-21
3.441011531e-21
3.434664925e-21
3.428398899e-21
3.422212181e-21
3.416103519e-21
3.410071689e-21
3.404115491e-21
3.398233745e-21
3.392425296e-21
3.386689012e-21
3.38102378e-21
3.375428511e-21
3.369902134e-21
3.364443599e-21
3.359051877e-21
3.353725958e-21
3.34846485e-21
3.34326758e-21
3.338133191e-21
3.333060747e-21
3.328049327e-21
3.323098028e-21
3.318205963e-21
3.313372259e-21
3.308596063e-21
3.303876533e-21
3.299212846e-21
3.294604191e-21
3.290049773e-21
3.285548809e-21
3.281100532e-21
3.276704188e-21
3.272359034e-21
3.268064343e-21
3.263819399e-21
3.259623499e-21
3.255475951e-21
3.251376076e-21
3.247323206e-21
3.243316685e-21
3.239355866e-21
3.235440117e-21
3.231568811e-21
3.227741337e-21
3.22395709e-21
3.220215476e-21
3.216515914e-21
3.212857828e-21
3.209240654e-21
3.205663835e-21
3.202126826e-21
3.198629088e-21
3.195170092e-21
3.191749316e-21
3.188366249e-21
3.185020386e-21
3.181711229e-21
3.178438291e-21
3.175201088e-21
3.171999148e-21
3.168832002e-21
3.165699192e-21
3.162600263e-21
3.15953477e-21
3.156502274e-21
3.153502342e-21
3.150534547e-21
3.147598468e-21
3.14469369e-21
3.141819806e-21
3.138976412e-21
3.136163111e-21
3.133379512e-21
3.130625229e-21
3.127899882e-21
3.125203093e-21
3.122534493e-21
3.119893716e-21
3.117280402e-21
3.114694193e-21
3.112134738e-21
3.109601691e-21
3.107094708e-21
3.104613451e-21
3.102157586e-21
3.099726781e-21
3.097320712e-21
3.094939055e-21
3.09258149e-21
3.090247704e-21
3.087937383e-21
3.08565022e-21
3.08338591e-21
3.081144151e-21
3.078924645e-21
3.076727096e-21
3.074551211e-21
3.0723967e-21
3.070263277e-21
3.068150658e-21
3.066058559e-21
3.063986704e-21
3.061934813e-21
3.059902613e-21
3.05788983e-21
3.055896192e-21
3.05392143e-21
3.051965276e-21
3.050027464e-21
3.048107727e-21
3.046205802e-21
3.044321424e-21
3.04245433e-21
3.040604256e-21
3.038770938e-21
3.036954113e-21
3.035153517e-21
3.033368885e-21
3.031599954e-21
3.029846461e-21
3.028108144e-21
3.026384741e-21
3.024675991e-21
3.022981629e-21
3.021301383e-21
3.019634971e-21
3.01798206e-21
3.016342283e-21
3.014715149e-21
3.013100002e-21
3.011495901e-21
3.009901564e-21
2.996995253e-21
2.978595991e-21
2.962630465e-21
2.949054991e-21
2.937728076e-21
2.928541671e-21
2.921415387e-21
2.916290221e-21
2.91312442e-21
2.911890159e-21
2.912570932e-21
2.915159459e-21
2.919655981e-21
2.926066832e-21
2.934403242e-21
2.944680298e-21
2.956916053e-21
2.971130741e-21
2.987346075e-21
3.005584616e-21
3.025869189e-21
3.048222334e-21
3.072665783e-21
3.099219933e-21
3.127903332e-21
3.158732147e-21
3.191719613e-21
3.226875461e-21
3.264205321e-21
3.303710088e-21
3.34538527e-21
3.389220299e-21
3.435197832e-21
3.483293025e-21
3.533472812e-21
3.585695191e-21
3.639908533e-21
3.696050931e-21
3.754049601e-21
3.813820369e-21
3.875267261e-21
3.938282203e-21
4.002744868e-21
4.068522687e-21
4.13547103e-21
4.20343359e-21
4.272242965e-21
4.341721459e-21
4.411682085e-21
4.481929785e-21
4.552262858e-21
4.622474555e-21
4.692354867e-21
4.761692429e-21
4.830276543e-21
4.897899289e-21
4.964357645e-21
5.029455639e-21
5.093006426e-21
5.154834294e-21
5.214776545e-21
5.272685196e-21
5.328428485e-21
5.381892143e-21
5.432980408e-21
5.481616736e-21
5.527744236e-21
5.571325785e-21
5.612343849e-21
5.650799993e-21
5.68671411e-21
5.720123383e-21
5.751081019e-21
5.779654766e-21
5.805925268e-21
5.829984303e-21
5.85193291e-21
5.871879505e-21
5.889937978e-21
5.906225835e-21
5.920862426e-21
5.933967281e-21
5.945658586e-21
5.956051832e-21
5.965258642e-21
5.973385793e-21
5.980534441e-21
5.986799544e-21
5.99226948e-21
5.997025846e-21
6.001143428e-21
6.004690315e-21
6.007728149e-21
6.010312465e-21
6.01249313e-21
6.01431482e-21
6.01581754e-21
6.017037148e-21
6.018005877e-21
6.018752824e-21
6.019304397e-21
6.019684717e-21
6.019915957e-21
6.020018618e-21
6.020011743e-21
6.01991307e-21
6.019739133e-21
6.019505304e-21
6.019225807e-21
6.018913697e-21
6.01858082e-21
6.018237762e-21
6.0178938e-21
6.017556863e-21
6.017233509e-21
6.016928921e-21
6.016646931e-21
6.016390071e-21
6.016159655e-21
6.015955881e-21
6.015777959e-21
6.01562426e-21
6.015492476e-21
6.015379787e-21
6.015283029e-21
6.015198863e-21
6.015123928e-21
6.015054979e-21
6.01498901e-21
6.01492335e-21
6.01485574e-21
6.014784378e-21
6.014707948e-21
6.014625618e-21
6.014537019e-21
6.014442209e-21
6.014341619e-21
6.014235992e-21
6.014126309e-21
6.01401372e-21
6.013899469e-21
6.013784829e-21
6.01367104e-21
6.013559255e-21
6.013450504e-21
6.013345655e-21
6.013245404e-21
6.013150258e-21
6.013060543e-21
6.012976408e-21
6.012897846e-21
6.012824713e-21
6.012756754e-21
6.012693627e-21
6.012634934e-21
6.012580243e-21
6.01252911e-21
6.012481101e-21
6.012435806e-21
6.01239285e-21
6.012351903e-21
6.012312683e-21
6.012274958e-21
6.012238545e-21
6.012203306e-21
6.012169143e-21
6.012135994e-21
6.012103828e-21
6.01207264e-21
6.012042445e-21
6.012013274e-21
6.011985173e-21
6.0119582e-21
6.01193242e-21
6.011907909e-21
6.011884746e-21
6.011863021e-21
6.011842823e-21
6.011824249e-21
6.011807393e-21
6.011792349e-21
6.011779209e-21
6.011768056e-21
6.011758963e-21
6.011751991e-21
6.011747183e-21
6.011744562e-21
6.01174413e-21
6.011745863e-21
6.011749711e-21
6.011755599e-21
6.011763423e-21
6.011773053e-21
6.011784335e-21
6.011797091e-21
6.011811124e-21
6.011826218e-21
6.011842143e-21
6.011858662e-21
6.011875528e-21
6.011892495e-21
6.011909315e-21
6.011925748e-21
6.011941564e-21
6.011956542e-21
6.01197048e-21
6.011983191e-21
6.01199451e-21
6.012004294e-21
6.012012421e-21
6.012018797e-21
6.012023349e-21
6.012026032e-21
6.012026822e-21
6.012025721e-21
6.012022752e-21
6.012017958e-21
6.012011404e-21
6.012003169e-21
6.011993349e-21
6.011982052e-21
6.011969398e-21
6.011955515e-21
6.011940537e-21
6.011924602e-21
6.011907853e-21
6.011890431e-21
6.011872479e-21
6.011854135e-21
6.011835537e-21
6.011816814e-21
6.011798094e-21
6.011779496e-21
6.011761133e-21
6.01174311e-21
6.011725523e-21
6.011708462e-21
6.011692006e-21
6.011676227e-21
6.011661185e-21
6.011646933e-21
6.011633515e-21
6.011620964e-21
6.011609307e-21
6.011598563e-21
6.011588749e-21
6.011579896e-21
6.011572095e-21
6.011565636e-21
6.011561369e-21
)
;

boundaryField
{
    inlet
    {
        type            fixedValue;
        value           uniform 0;
    }
    outlet
    {
        type            zeroGradient;
    }
    wall
    {
        type            empty;
    }
}


// ************************************************************************* //
