/*--------------------------------*- C++ -*----------------------------------*\
  =========                 |
  \\      /  F ield         | OpenFOAM: The Open Source CFD Toolbox
   \\    /   O peration     | Website:  https://openfoam.org
    \\  /    A nd           | Version:  7
     \\/     M anipulation  |
\*---------------------------------------------------------------------------*/
FoamFile
{
    version     2.0;
    format      ascii;
    class       volScalarField;
    location    "0.000558243009";
    object      CH3O;
}
// * * * * * * * * * * * * * * * * * * * * * * * * * * * * * * * * * * * * * //

dimensions      [0 0 0 0 0 0 0];

internalField   nonuniform List<scalar> 
1500
(
9.149651805e-25
3.572177615e-24
7.412575295e-24
1.11800088e-23
1.399916837e-23
1.571620754e-23
1.660104946e-23
1.699671517e-23
1.715306702e-23
1.720849225e-23
1.722639286e-23
1.723179936e-23
1.723343457e-23
1.72340208e-23
1.723432279e-23
1.723453335e-23
1.723469693e-23
1.723482541e-23
1.72349253e-23
1.723500222e-23
1.723506076e-23
1.723510413e-23
1.723513425e-23
1.723515241e-23
1.723515979e-23
1.723515789e-23
1.72351487e-23
1.723513462e-23
1.723511815e-23
1.723510167e-23
1.723508717e-23
1.723507613e-23
1.723506948e-23
1.723506765e-23
1.723507065e-23
1.723507821e-23
1.723508985e-23
1.723510496e-23
1.723512287e-23
1.723514287e-23
1.723516422e-23
1.723518622e-23
1.723520818e-23
1.723522949e-23
1.723524964e-23
1.723526824e-23
1.723528505e-23
1.723529994e-23
1.723531293e-23
1.723532413e-23
1.723533371e-23
1.72353419e-23
1.723534892e-23
1.7235355e-23
1.723536031e-23
1.723536497e-23
1.723536908e-23
1.723537264e-23
1.723537565e-23
1.723537803e-23
1.723537968e-23
1.723538049e-23
1.723538031e-23
1.723537901e-23
1.723537645e-23
1.723537251e-23
1.72353671e-23
1.723536014e-23
1.723535161e-23
1.723534154e-23
1.723532998e-23
1.723531706e-23
1.723530294e-23
1.723528784e-23
1.723527202e-23
1.723525577e-23
1.723523941e-23
1.723522328e-23
1.723520773e-23
1.723519308e-23
1.723517967e-23
1.723516781e-23
1.723515777e-23
1.723514977e-23
1.723514402e-23
1.723514065e-23
1.723513976e-23
1.723514139e-23
1.723514552e-23
1.723515209e-23
1.723516099e-23
1.723517206e-23
1.72351851e-23
1.723519988e-23
1.723521612e-23
1.723523353e-23
1.72352518e-23
1.723527062e-23
1.723528967e-23
1.723530862e-23
1.723532718e-23
1.723534509e-23
1.723536208e-23
1.723537797e-23
1.723539259e-23
1.723540582e-23
1.72354176e-23
1.723542791e-23
1.723543677e-23
1.723544425e-23
1.723545046e-23
1.723545552e-23
1.723545959e-23
1.723546281e-23
1.723546536e-23
1.723546739e-23
1.723546902e-23
1.72354704e-23
1.72354716e-23
1.723547271e-23
1.723547376e-23
1.723547477e-23
1.723547574e-23
1.723547665e-23
1.723547746e-23
1.723547814e-23
1.723547862e-23
1.723547887e-23
1.723547885e-23
1.72354785e-23
1.723547782e-23
1.723547676e-23
1.723547533e-23
1.72354735e-23
1.723547127e-23
1.723546863e-23
1.723546557e-23
1.723546209e-23
1.723545815e-23
1.723545373e-23
1.723544881e-23
1.723544334e-23
1.723543729e-23
1.723543061e-23
1.723542327e-23
1.723541523e-23
1.723540648e-23
1.723539699e-23
1.723538677e-23
1.723537584e-23
1.723536424e-23
1.723535202e-23
1.723533926e-23
1.723532605e-23
1.723531249e-23
1.723529869e-23
1.723528479e-23
1.723527092e-23
1.72352572e-23
1.723524377e-23
1.723523076e-23
1.72352183e-23
1.723520649e-23
1.723519545e-23
1.723518527e-23
1.723517606e-23
1.723516789e-23
1.723516084e-23
1.723515498e-23
1.723515039e-23
1.723514713e-23
1.723514525e-23
1.72351448e-23
1.723514584e-23
1.723514839e-23
1.723515248e-23
1.723515811e-23
1.723516529e-23
1.723517396e-23
1.723518408e-23
1.723519557e-23
1.72352083e-23
1.723522211e-23
1.723523683e-23
1.723525222e-23
1.723526802e-23
1.723528392e-23
1.723529959e-23
1.723531468e-23
1.723532883e-23
1.723534167e-23
1.723535285e-23
1.723536207e-23
1.723536906e-23
1.723537362e-23
1.723537561e-23
1.723537499e-23
1.723537175e-23
1.723536599e-23
1.72353578e-23
1.723534733e-23
1.723533472e-23
1.72353201e-23
1.723530359e-23
1.723528527e-23
1.723526524e-23
1.723524361e-23
1.723522056e-23
1.723519637e-23
1.723517148e-23
1.723514651e-23
1.723512225e-23
1.723509968e-23
1.723507987e-23
1.723506389e-23
1.723505267e-23
1.723504684e-23
1.723504655e-23
1.723505126e-23
1.723505968e-23
1.723506965e-23
1.723507819e-23
1.723508168e-23
1.723507605e-23
1.723505723e-23
1.723502163e-23
1.723496666e-23
1.723489129e-23
1.723479654e-23
1.72346858e-23
1.7234565e-23
1.723444243e-23
1.723432828e-23
1.723423382e-23
1.723417032e-23
1.72341476e-23
1.723417258e-23
1.723424773e-23
1.723436986e-23
1.723452958e-23
1.723471226e-23
1.723490217e-23
1.723509335e-23
1.723531378e-23
1.723567236e-23
1.723643702e-23
1.723813088e-23
1.724156409e-23
1.72475506e-23
1.725574106e-23
1.725885817e-23
1.725973123e-23
1.726064099e-23
1.72615893e-23
1.726257764e-23
1.726360746e-23
1.726468035e-23
1.72657981e-23
1.726696266e-23
1.72681761e-23
1.726944066e-23
1.727075868e-23
1.727213265e-23
1.727356517e-23
1.727505899e-23
1.727661702e-23
1.72782423e-23
1.727993806e-23
1.72817077e-23
1.728355478e-23
1.728548309e-23
1.728749661e-23
1.728959954e-23
1.729179629e-23
1.729409156e-23
1.729649025e-23
1.729899757e-23
1.730161901e-23
1.730436036e-23
1.730722773e-23
1.731022756e-23
1.731336667e-23
1.731665225e-23
1.732009189e-23
1.732369359e-23
1.732746582e-23
1.733141751e-23
1.733555808e-23
1.73398975e-23
1.734444628e-23
1.734921552e-23
1.735421694e-23
1.73594629e-23
1.736496649e-23
1.737074147e-23
1.737680242e-23
1.738316469e-23
1.738984451e-23
1.739685897e-23
1.740422615e-23
1.74119651e-23
1.742009591e-23
1.74286398e-23
1.743761913e-23
1.744705748e-23
1.745697973e-23
1.74674121e-23
1.747838223e-23
1.748991925e-23
1.750205387e-23
1.751481843e-23
1.752824702e-23
1.754237552e-23
1.755724173e-23
1.757288546e-23
1.758934859e-23
1.760667524e-23
1.762491179e-23
1.764410709e-23
1.766431249e-23
1.768558202e-23
1.770797247e-23
1.773154358e-23
1.775635813e-23
1.778248208e-23
1.780998479e-23
1.783893908e-23
1.786942147e-23
1.790151232e-23
1.793529601e-23
1.797086112e-23
1.800830065e-23
1.80477122e-23
1.808919819e-23
1.813286609e-23
1.817882863e-23
1.822720408e-23
1.827811647e-23
1.833169586e-23
1.838807865e-23
1.844740782e-23
1.85098333e-23
1.857551222e-23
1.864460929e-23
1.871729715e-23
1.879375672e-23
1.88741776e-23
1.895875846e-23
1.904770749e-23
1.914124283e-23
1.923959306e-23
1.934299766e-23
1.945170758e-23
1.956598572e-23
1.968610757e-23
1.981236178e-23
1.994505081e-23
2.00844916e-23
2.023101625e-23
2.03849728e-23
2.054672601e-23
2.071665813e-23
2.089516984e-23
2.108268112e-23
2.127963222e-23
2.148648467e-23
2.170372234e-23
2.193185258e-23
2.217140738e-23
2.242294461e-23
2.268704933e-23
2.296433517e-23
2.325544576e-23
2.356105621e-23
2.388187478e-23
2.421864447e-23
2.45721448e-23
2.494319364e-23
2.533264914e-23
2.574141172e-23
2.61704262e-23
2.6620684e-23
2.709322541e-23
2.758914205e-23
2.810957934e-23
2.865573912e-23
2.92288824e-23
2.983033218e-23
3.046147645e-23
3.112377119e-23
3.181874366e-23
3.254799562e-23
3.331320685e-23
3.411613867e-23
3.495863764e-23
3.584263938e-23
3.677017249e-23
3.774336267e-23
3.876443686e-23
3.98357276e-23
4.095967747e-23
4.213884365e-23
4.337590268e-23
4.46736552e-23
4.603503095e-23
4.746309385e-23
4.896104711e-23
5.05322386e-23
5.218016623e-23
5.390848345e-23
5.57210049e-23
5.762171212e-23
5.961475935e-23
6.170447951e-23
6.389539012e-23
6.619219947e-23
6.859981275e-23
7.112333835e-23
7.376809414e-23
7.653961393e-23
7.944365394e-23
8.248619932e-23
8.56734708e-23
8.901193138e-23
9.250829304e-23
9.616952363e-23
1.000028537e-22
1.040157835e-22
1.082160899e-22
1.126118339e-22
1.172113674e-22
1.220233405e-22
1.270567095e-22
1.32320744e-22
1.378250343e-22
1.435795003e-22
1.495943983e-22
1.558803301e-22
1.624482512e-22
1.693094796e-22
1.764757047e-22
1.839589967e-22
1.917718167e-22
1.999270262e-22
2.084378986e-22
2.173181295e-22
2.265818492e-22
2.362436348e-22
2.463185231e-22
2.568220252e-22
2.677701408e-22
2.791793742e-22
2.910667512e-22
3.034498373e-22
3.163467569e-22
3.297762141e-22
3.437575149e-22
3.583105916e-22
3.734560282e-22
3.892150882e-22
4.056097445e-22
4.22662712e-22
4.403974815e-22
4.58838358e-22
4.780105002e-22
4.979399643e-22
5.186537505e-22
5.401798537e-22
5.625473173e-22
5.857862916e-22
6.099280967e-22
6.350052898e-22
6.610517381e-22
6.881026962e-22
7.161948906e-22
7.453666092e-22
7.756577979e-22
8.071101644e-22
8.397672895e-22
8.73674746e-22
9.088802264e-22
9.454336803e-22
9.833874604e-22
1.02279648e-21
1.063718381e-21
1.106213713e-21
1.150346128e-21
1.196182583e-21
1.243793562e-21
1.293253313e-21
1.344640098e-21
1.39803646e-21
1.453529516e-21
1.51121126e-21
1.571178896e-21
1.633535183e-21
1.698388819e-21
1.765854835e-21
1.836055029e-21
1.909118423e-21
1.985181752e-21
2.064389991e-21
2.146896916e-21
2.232865699e-21
2.322469554e-21
2.415892421e-21
2.513329696e-21
2.614989025e-21
2.721091137e-21
2.831870751e-21
2.947577538e-21
3.068477159e-21
3.194852375e-21
3.327004269e-21
3.46525372e-21
3.609942626e-21
3.761435342e-21
3.920120382e-21
4.086411978e-21
4.260751923e-21
4.443611562e-21
4.635493911e-21
4.836935916e-21
5.048510881e-21
5.270831099e-21
5.504550685e-21
5.750368644e-21
6.009032129e-21
6.281339968e-21
6.568146949e-21
6.870367714e-21
7.1889813e-21
7.525036176e-21
7.879656e-21
8.254045542e-21
8.649496816e-21
9.067395989e-21
9.509231051e-21
9.976600233e-21
1.047122124e-20
1.099494144e-20
1.154974903e-20
1.213778552e-20
1.276135947e-20
1.34229619e-20
1.412528334e-20
1.487123311e-20
1.566396086e-20
1.650688094e-20
1.740369992e-20
1.835844793e-20
1.937551435e-20
2.045968872e-20
2.161620772e-20
2.285080941e-20
2.416979606e-20
2.558010723e-20
2.708940509e-20
2.870617448e-20
3.043984059e-20
3.230090805e-20
3.430112584e-20
3.645368359e-20
3.877344611e-20
4.127723466e-20
4.39841656e-20
4.691605943e-20
5.009793696e-20
5.355862333e-20
5.733148595e-20
6.145533987e-20
6.597556253e-20
7.094547194e-20
7.642803733e-20
8.249801103e-20
8.924459632e-20
9.677479981e-20
1.052176617e-19
1.147296166e-19
1.255013144e-19
1.377663377e-19
1.518123869e-19
1.679956915e-19
1.867596523e-19
2.086590514e-19
2.343916099e-19
2.648392744e-19
3.01122418e-19
3.446712304e-19
3.973200411e-19
4.614323085e-19
5.400666968e-19
6.371983113e-19
7.580141044e-19
9.093081773e-19
1.100011812e-18
1.341905448e-18
1.65057665e-18
2.046710988e-18
2.557833909e-18
3.220664017e-18
4.084295898e-18
5.21450913e-18
6.699607113e-18
8.658335023e-18
1.125062468e-17
1.469218458e-17
1.927432172e-17
2.539088402e-17
3.357489634e-17
4.454839516e-17
5.92902379e-17
7.912839344e-17
1.058655796e-16
1.41950327e-16
1.90709926e-16
2.566676797e-16
3.459750048e-16
4.669999881e-16
6.311290645e-16
8.538589867e-16
1.156284163e-15
1.567122404e-15
2.125473788e-15
2.884577566e-15
3.916927569e-15
5.321236318e-15
7.231914374e-15
9.831970858e-15
1.337056601e-14
1.818688748e-14
2.474261964e-14
3.366608498e-14
4.581223318e-14
6.23441368e-14
8.484365806e-14
1.1546166e-13
1.571217901e-13
2.137967899e-13
2.908829166e-13
3.957069743e-13
5.38212421e-13
7.318870483e-13
9.950161825e-13
1.352373981e-12
1.837503528e-12
2.495787083e-12
3.388574924e-12
4.598729818e-12
6.238060682e-12
8.457271728e-12
1.145925256e-11
1.551679312e-11
2.099614086e-11
2.838824461e-11
3.835007262e-11
5.175907696e-11
6.978472935e-11
9.398210525e-11
1.264137695e-10
1.698077403e-10
2.277610896e-10
3.050007623e-10
4.077154292e-10
5.439745312e-10
7.242529774e-10
9.620820099e-10
1.274848207e-09
1.684763088e-09
2.220024845e-09
2.916190843e-09
3.817774453e-09
4.980072241e-09
6.471218079e-09
8.374450463e-09
1.079057045e-08
1.384056397e-08
1.766836881e-08
2.24437906e-08
2.836562116e-08
3.566509644e-08
4.460995814e-08
5.550956069e-08
6.872169832e-08
8.466211354e-08
1.038179805e-07
1.267670093e-07
1.542041478e-07
1.869780932e-07
2.261398535e-07
2.730052321e-07
3.292322091e-07
3.969124269e-07
4.786733421e-07
5.777841152e-07
6.982546792e-07
8.449147899e-07
1.023418286e-06
1.240434126e-06
1.502971263e-06
1.819854804e-06
2.198958898e-06
2.647334712e-06
3.160944402e-06
3.736749983e-06
4.352181195e-06
4.956043281e-06
5.460706219e-06
5.750009475e-06
5.723836077e-06
5.362044689e-06
4.751004346e-06
4.031113426e-06
3.328070059e-06
2.709960897e-06
2.219885297e-06
1.843680147e-06
1.561747933e-06
1.349449977e-06
1.19062412e-06
1.06715775e-06
9.681355749e-07
8.879617045e-07
8.210484419e-07
7.624466081e-07
7.092759232e-07
6.597106328e-07
6.126016668e-07
5.671868359e-07
5.22719561e-07
4.792179531e-07
4.360487994e-07
3.936390761e-07
3.521407649e-07
3.120671615e-07
2.740056947e-07
2.385021614e-07
2.056553586e-07
1.758168069e-07
1.492967705e-07
1.260444133e-07
1.058947276e-07
8.860223522e-08
7.387438635e-08
6.141602943e-08
5.094082741e-08
4.216258137e-08
3.495224247e-08
2.894707318e-08
2.390545212e-08
1.973619952e-08
1.629264215e-08
1.345034121e-08
1.110518021e-08
9.170627158e-09
7.576518646e-09
6.260678699e-09
5.175542761e-09
4.280595988e-09
3.542385342e-09
2.933309457e-09
2.43061161e-09
2.01554154e-09
1.672658345e-09
1.389251554e-09
1.154861166e-09
9.608804525e-10
8.002277896e-10
6.670759228e-10
5.566289036e-10
4.649385011e-10
3.887531981e-10
3.253941229e-10
2.726531132e-10
2.287090078e-10
1.920589215e-10
1.614618199e-10
1.358921921e-10
1.145020068e-10
9.658946454e-11
8.157332257e-11
6.897179183e-11
5.838518296e-11
4.948162886e-11
4.198533163e-11
3.566688199e-11
3.033528069e-11
2.583135817e-11
2.202234377e-11
1.879738042e-11
1.606381726e-11
1.374414308e-11
1.177344769e-11
1.009731863e-11
8.670097059e-12
7.453430408e-12
6.415070067e-12
5.527871887e-12
4.768964476e-12
4.119056512e-12
3.561859312e-12
3.083605032e-12
2.672644283e-12
2.319109762e-12
2.014634802e-12
1.752117644e-12
1.525523821e-12
1.329720327e-12
1.160336332e-12
1.013646069e-12
8.864702763e-13
7.760931722e-13
6.801924418e-13
5.967801436e-13
5.241527804e-13
4.608490733e-13
4.056142142e-13
3.573695734e-13
3.151870048e-13
2.782670283e-13
2.459202872e-13
2.175517731e-13
1.926473914e-13
1.707625098e-13
1.51512187e-13
1.345628265e-13
1.196250421e-13
1.064475514e-13
9.481194519e-14
8.452820296e-14
7.543084343e-14
6.737561785e-14
6.023666638e-14
5.390407057e-14
4.828174456e-14
4.328561667e-14
3.88420597e-14
3.488653472e-14
3.13624183e-14
2.821998733e-14
2.54155395e-14
2.291063061e-14
2.067141255e-14
1.866805826e-14
1.687426164e-14
1.526680237e-14
1.382516684e-14
1.253121767e-14
1.136890535e-14
1.032401637e-14
9.383953162e-15
8.537541485e-15
7.774861854e-15
7.087101801e-15
6.466426318e-15
5.905864142e-15
5.399207865e-15
4.94092612e-15
4.526086327e-15
4.150286658e-15
3.809596096e-15
3.500501569e-15
3.219861298e-15
2.964863585e-15
2.732990394e-15
2.521985136e-15
2.329824146e-15
2.154691427e-15
1.994956251e-15
1.849153296e-15
1.715965008e-15
1.594205937e-15
1.482808808e-15
1.380812128e-15
1.287349163e-15
1.20163811e-15
1.122973339e-15
1.050717583e-15
9.842949631e-16
9.231847661e-16
8.669158753e-16
8.150617951e-16
7.672361976e-16
7.230889348e-16
6.823024668e-16
6.445886583e-16
6.096859057e-16
5.77356559e-16
5.473846052e-16
5.195735882e-16
4.937447366e-16
4.697352816e-16
4.473969407e-16
4.265945535e-16
4.072048516e-16
3.891153501e-16
3.722233469e-16
3.564350199e-16
3.416646117e-16
3.278336924e-16
3.148704941e-16
3.027093076e-16
2.912899381e-16
2.805572107e-16
2.704605239e-16
2.609534436e-16
2.519933362e-16
2.435410348e-16
2.355605368e-16
2.28018729e-16
2.208851379e-16
2.141317032e-16
2.077325708e-16
2.016639056e-16
1.959037203e-16
1.904317204e-16
1.852291617e-16
1.802787218e-16
1.755643819e-16
1.710713197e-16
1.66785811e-16
1.626951405e-16
1.587875199e-16
1.55052013e-16
1.51478468e-16
1.480574545e-16
1.447802065e-16
1.416385702e-16
1.386249558e-16
1.357322941e-16
1.329539958e-16
1.302839148e-16
1.277163146e-16
1.25245837e-16
1.228674735e-16
1.205765394e-16
1.183686496e-16
1.162396966e-16
1.141858301e-16
1.122034381e-16
1.1028913e-16
1.084397205e-16
1.066522154e-16
1.049237973e-16
1.032518142e-16
1.016337672e-16
1.000673004e-16
9.855019115e-17
9.70803407e-17
9.565576612e-17
9.427459252e-17
9.293504597e-17
9.163544688e-17
9.03742038e-17
8.914980784e-17
8.796082741e-17
8.680590339e-17
8.568374451e-17
8.459312323e-17
8.353287182e-17
8.250187873e-17
8.14990853e-17
8.052348254e-17
7.957410827e-17
7.865004436e-17
7.775041421e-17
7.687438035e-17
7.602114236e-17
7.518993469e-17
7.438002484e-17
7.359071148e-17
7.282132283e-17
7.207121508e-17
7.133977086e-17
7.062639796e-17
6.9930528e-17
6.925161517e-17
6.858913517e-17
6.794258412e-17
6.731147755e-17
6.669534943e-17
6.609375136e-17
6.550625165e-17
6.493243462e-17
6.437189976e-17
6.382426115e-17
6.328914665e-17
6.276619744e-17
6.225506734e-17
6.175542226e-17
6.126693968e-17
6.078930819e-17
6.032222694e-17
5.986540532e-17
5.941856241e-17
5.898142662e-17
5.855373534e-17
5.813523456e-17
5.772567853e-17
5.732482942e-17
5.6932457e-17
5.654833836e-17
5.617225765e-17
5.580400576e-17
5.544338012e-17
5.509018442e-17
5.474422843e-17
5.440532768e-17
5.407330331e-17
5.374798189e-17
5.342919518e-17
5.311677997e-17
5.281057787e-17
5.251043516e-17
5.221620268e-17
5.192773561e-17
5.16448933e-17
5.136753919e-17
5.109554064e-17
5.082876881e-17
5.056709853e-17
5.031040815e-17
5.005857947e-17
4.981149759e-17
4.956905084e-17
4.933113063e-17
4.909763141e-17
4.886845048e-17
4.864348802e-17
4.842264688e-17
4.820583259e-17
4.799295323e-17
4.778391934e-17
4.757864387e-17
4.737704211e-17
4.717903161e-17
4.698453211e-17
4.679346543e-17
4.660575549e-17
4.642132818e-17
4.624011134e-17
4.60620347e-17
4.588702979e-17
4.571502991e-17
4.554597008e-17
4.537978697e-17
4.521641891e-17
4.505580575e-17
4.48978889e-17
4.474261122e-17
4.458991704e-17
4.443975207e-17
4.429206337e-17
4.414679932e-17
4.40039096e-17
4.386334512e-17
4.372505799e-17
4.358900152e-17
4.345513014e-17
4.33233994e-17
4.319376594e-17
4.306618744e-17
4.294062261e-17
4.281703114e-17
4.269537369e-17
4.257561186e-17
4.245770816e-17
4.234162601e-17
4.222732967e-17
4.211478426e-17
4.200395571e-17
4.189481074e-17
4.178731687e-17
4.168144236e-17
4.157715619e-17
4.147442808e-17
4.137322844e-17
4.127352837e-17
4.11752996e-17
4.107851454e-17
4.09831462e-17
4.088916821e-17
4.07965548e-17
4.070528077e-17
4.061532149e-17
4.052665287e-17
4.043925136e-17
4.035309395e-17
4.026815812e-17
4.018442186e-17
4.010186363e-17
4.002046237e-17
3.994019746e-17
3.986104875e-17
3.978299653e-17
3.970602149e-17
3.963010476e-17
3.955522787e-17
3.948137272e-17
3.940852165e-17
3.93366573e-17
3.926576275e-17
3.919582138e-17
3.912681696e-17
3.905873358e-17
3.899155566e-17
3.892526795e-17
3.885985552e-17
3.879530374e-17
3.873159829e-17
3.866872513e-17
3.860667053e-17
3.854542101e-17
3.84849634e-17
3.842528476e-17
3.836637243e-17
3.830821401e-17
3.825079735e-17
3.819411051e-17
3.813814184e-17
3.808287987e-17
3.802831339e-17
3.79744314e-17
3.792122313e-17
3.786867799e-17
3.781678562e-17
3.776553587e-17
3.771491876e-17
3.766492452e-17
3.761554357e-17
3.756676651e-17
3.751858411e-17
3.747098733e-17
3.74239673e-17
3.737751532e-17
3.733162284e-17
3.728628148e-17
3.724148303e-17
3.719721942e-17
3.715348274e-17
3.71102652e-17
3.706755919e-17
3.702535722e-17
3.698365194e-17
3.694243615e-17
3.690170276e-17
3.686144483e-17
3.682165554e-17
3.678232817e-17
3.674345616e-17
3.670503304e-17
3.666705247e-17
3.662950821e-17
3.659239417e-17
3.65557043e-17
3.651943273e-17
3.648357364e-17
3.644812135e-17
3.641307025e-17
3.637841486e-17
3.634414976e-17
3.631026965e-17
3.627676931e-17
3.624364362e-17
3.621088755e-17
3.617849615e-17
3.614646454e-17
3.611478795e-17
3.608346168e-17
3.605248111e-17
3.60218417e-17
3.599153897e-17
3.596156855e-17
3.593192611e-17
3.590260741e-17
3.587360828e-17
3.584492461e-17
3.581655236e-17
3.578848757e-17
3.576072633e-17
3.573326479e-17
3.570609918e-17
3.567922579e-17
3.565264094e-17
3.562634106e-17
3.560032259e-17
3.557458204e-17
3.554911599e-17
3.552392106e-17
3.549899393e-17
3.547433132e-17
3.544993002e-17
3.542578686e-17
3.540189871e-17
3.53782625e-17
3.535487519e-17
3.533173381e-17
3.530883542e-17
3.528617712e-17
3.526375606e-17
3.524156943e-17
3.521961446e-17
3.519788841e-17
3.51763886e-17
3.515511237e-17
3.51340571e-17
3.511322021e-17
3.509259914e-17
3.50721914e-17
3.505199448e-17
3.503200596e-17
3.501222342e-17
3.499264447e-17
3.497326674e-17
3.495408793e-17
3.493510572e-17
3.491631784e-17
3.489772205e-17
3.487931613e-17
3.486109788e-17
3.484306512e-17
3.48252157e-17
3.48075475e-17
3.479005838e-17
3.477274625e-17
3.475560903e-17
3.473864467e-17
3.472185109e-17
3.470522626e-17
3.468876815e-17
3.467247472e-17
3.465634394e-17
3.464037379e-17
3.462456222e-17
3.460890719e-17
3.459340665e-17
3.457805851e-17
3.456286069e-17
3.454781102e-17
3.453290732e-17
3.451814731e-17
3.450352859e-17
3.448904858e-17
3.447470444e-17
3.446049284e-17
3.444640996e-17
3.443245091e-17
3.441860948e-17
3.440487732e-17
3.439124378e-17
3.428100668e-17
3.412767878e-17
3.399991066e-17
3.389747406e-17
3.381935609e-17
3.376482132e-17
3.373337429e-17
3.372470932e-17
3.373867563e-17
3.37752501e-17
3.383451619e-17
3.391664725e-17
3.402189295e-17
3.415056804e-17
3.430304295e-17
3.44797357e-17
3.468110495e-17
3.490764376e-17
3.515987386e-17
3.543834038e-17
3.574360666e-17
3.607624901e-17
3.643685146e-17
3.682599995e-17
3.724427628e-17
3.769225131e-17
3.817047758e-17
3.867948098e-17
3.921975182e-17
3.979173464e-17
4.039581736e-17
4.103231933e-17
4.170147847e-17
4.240343764e-17
4.313823016e-17
4.390576482e-17
4.470581065e-17
4.553798131e-17
4.640171979e-17
4.729628368e-17
4.822073137e-17
4.917390943e-17
5.015444195e-17
5.11607221e-17
5.219090634e-17
5.324291198e-17
5.431441821e-17
5.540287128e-17
5.650549378e-17
5.761929859e-17
5.874110752e-17
5.986757428e-17
6.099521237e-17
6.212042666e-17
6.323954909e-17
6.434887744e-17
6.544471647e-17
6.652342097e-17
6.758143933e-17
6.861535702e-17
6.962193899e-17
7.05981695e-17
7.154128906e-17
7.244882724e-17
7.331863054e-17
7.414888458e-17
7.49381305e-17
7.568527461e-17
7.638959187e-17
7.705072258e-17
7.766866274e-17
7.824374872e-17
7.877663639e-17
7.926827567e-17
7.971988116e-17
8.013289975e-17
8.050897608e-17
8.084991683e-17
8.11576547e-17
8.143421279e-17
8.168167043e-17
8.190213087e-17
8.209769156e-17
8.22704174e-17
8.242231738e-17
8.255532468e-17
8.267128058e-17
8.277192181e-17
8.285887165e-17
8.293363423e-17
8.299759197e-17
8.30520058e-17
8.309801769e-17
8.313665529e-17
8.31688381e-17
8.31953849e-17
8.321702191e-17
8.323439146e-17
8.324806083e-17
8.32585308e-17
8.32662439e-17
8.327159203e-17
8.327492329e-17
8.327654808e-17
8.327674417e-17
8.327576103e-17
8.327382323e-17
8.327113305e-17
8.326787246e-17
8.326420446e-17
8.3260274e-17
8.32562086e-17
8.325211866e-17
8.324809781e-17
8.324422319e-17
8.32405558e-17
8.323714113e-17
8.323400984e-17
8.323117881e-17
8.32286523e-17
8.32264234e-17
8.322447562e-17
8.322278467e-17
8.322132024e-17
8.322004787e-17
8.321893076e-17
8.321793148e-17
8.321701354e-17
8.321614275e-17
8.321528837e-17
8.321442394e-17
8.321352798e-17
8.321258424e-17
8.321158184e-17
8.321051508e-17
8.32093831e-17
8.320818936e-17
8.320694093e-17
8.320564779e-17
8.3204322e-17
8.320297693e-17
8.32016265e-17
8.320028445e-17
8.319896379e-17
8.319767625e-17
8.319643193e-17
8.319523906e-17
8.319410384e-17
8.319303043e-17
8.319202101e-17
8.319107598e-17
8.319019414e-17
8.318937295e-17
8.318860887e-17
8.318789758e-17
8.318723433e-17
8.318661416e-17
8.318603212e-17
8.31854835e-17
8.318496394e-17
8.318446953e-17
8.318399692e-17
8.318354327e-17
8.318310633e-17
8.318268434e-17
8.318227603e-17
8.318188057e-17
8.318149748e-17
8.318112659e-17
8.318076801e-17
8.318042203e-17
8.318008915e-17
8.317976999e-17
8.317946529e-17
8.317917589e-17
8.317890272e-17
8.317864678e-17
8.31784091e-17
8.317819078e-17
8.317799288e-17
8.31778165e-17
8.317766265e-17
8.317753228e-17
8.317742622e-17
8.317734513e-17
8.317728951e-17
8.317725959e-17
8.317725537e-17
8.317727658e-17
8.317732261e-17
8.317739258e-17
8.317748528e-17
8.31775992e-17
8.317773254e-17
8.317788324e-17
8.317804899e-17
8.317822729e-17
8.317841549e-17
8.31786108e-17
8.317881036e-17
8.317901131e-17
8.317921077e-17
8.317940595e-17
8.317959416e-17
8.317977284e-17
8.317993964e-17
8.318009237e-17
8.318022913e-17
8.318034824e-17
8.318044829e-17
8.318052818e-17
8.318058707e-17
8.318062441e-17
8.318063994e-17
8.318063366e-17
8.318060585e-17
8.3180557e-17
8.318048785e-17
8.318039931e-17
8.318029248e-17
8.318016861e-17
8.318002907e-17
8.317987533e-17
8.317970892e-17
8.317953145e-17
8.317934452e-17
8.317914977e-17
8.317894882e-17
8.317874325e-17
8.317853461e-17
8.31783244e-17
8.317811405e-17
8.31779049e-17
8.317769824e-17
8.317749524e-17
8.317729699e-17
8.317710449e-17
8.317691861e-17
8.317674014e-17
8.317656976e-17
8.317640803e-17
8.317625541e-17
8.317611228e-17
8.31759789e-17
8.317585545e-17
8.317574213e-17
8.317563929e-17
8.317554799e-17
8.317547166e-17
8.31754204e-17
)
;

boundaryField
{
    inlet
    {
        type            fixedValue;
        value           uniform 0;
    }
    outlet
    {
        type            zeroGradient;
    }
    wall
    {
        type            empty;
    }
}


// ************************************************************************* //
