/*--------------------------------*- C++ -*----------------------------------*\
  =========                 |
  \\      /  F ield         | OpenFOAM: The Open Source CFD Toolbox
   \\    /   O peration     | Website:  https://openfoam.org
    \\  /    A nd           | Version:  7
     \\/     M anipulation  |
\*---------------------------------------------------------------------------*/
FoamFile
{
    version     2.0;
    format      ascii;
    class       volScalarField;
    location    "0.000558243009";
    object      CH3OH_0;
}
// * * * * * * * * * * * * * * * * * * * * * * * * * * * * * * * * * * * * * //

dimensions      [0 0 0 0 0 0 0];

internalField   nonuniform List<scalar> 
1500
(
8.470456143e-14
3.312353126e-13
6.834228246e-13
1.026162664e-12
1.282038238e-12
1.438524717e-12
1.519966219e-12
1.55690196e-12
1.571746011e-12
1.577102694e-12
1.578857628e-12
1.579384502e-12
1.579530614e-12
1.579568297e-12
1.579577389e-12
1.579579451e-12
1.579579893e-12
1.579579982e-12
1.57958e-12
1.579580003e-12
1.579580003e-12
1.579580003e-12
1.579580003e-12
1.579580003e-12
1.579580003e-12
1.579580003e-12
1.579580003e-12
1.579580003e-12
1.579580003e-12
1.579580003e-12
1.579580003e-12
1.579580003e-12
1.579580003e-12
1.579580003e-12
1.579580003e-12
1.579580003e-12
1.579580003e-12
1.579580003e-12
1.579580003e-12
1.579580003e-12
1.579580003e-12
1.579580003e-12
1.579580003e-12
1.579580003e-12
1.579580003e-12
1.579580003e-12
1.579580003e-12
1.579580003e-12
1.579580003e-12
1.579580003e-12
1.579580003e-12
1.579580003e-12
1.579580003e-12
1.579580003e-12
1.579580003e-12
1.579580003e-12
1.579580003e-12
1.579580003e-12
1.579580003e-12
1.579580003e-12
1.579580003e-12
1.579580003e-12
1.579580003e-12
1.579580003e-12
1.579580003e-12
1.579580003e-12
1.579580003e-12
1.579580003e-12
1.579580003e-12
1.579580003e-12
1.579580003e-12
1.579580003e-12
1.579580003e-12
1.579580003e-12
1.579580003e-12
1.579580003e-12
1.579580003e-12
1.579580003e-12
1.579580003e-12
1.579580003e-12
1.579580003e-12
1.579580003e-12
1.579580003e-12
1.579580003e-12
1.579580003e-12
1.579580003e-12
1.579580003e-12
1.579580003e-12
1.579580003e-12
1.579580003e-12
1.579580003e-12
1.579580003e-12
1.579580003e-12
1.579580003e-12
1.579580003e-12
1.579580003e-12
1.579580003e-12
1.579580003e-12
1.579580003e-12
1.579580003e-12
1.579580003e-12
1.579580003e-12
1.579580003e-12
1.579580003e-12
1.579580003e-12
1.579580003e-12
1.579580003e-12
1.579580003e-12
1.579580003e-12
1.579580003e-12
1.579580003e-12
1.579580003e-12
1.579580003e-12
1.579580003e-12
1.579580003e-12
1.579580003e-12
1.579580003e-12
1.579580003e-12
1.579580003e-12
1.579580003e-12
1.579580003e-12
1.579580003e-12
1.579580003e-12
1.579580003e-12
1.579580003e-12
1.579580003e-12
1.579580003e-12
1.579580003e-12
1.579580003e-12
1.579580003e-12
1.579580003e-12
1.579580003e-12
1.579580003e-12
1.579580003e-12
1.579580003e-12
1.579580003e-12
1.579580003e-12
1.579580003e-12
1.579580003e-12
1.579580003e-12
1.579580003e-12
1.579580003e-12
1.579580003e-12
1.579580003e-12
1.579580003e-12
1.579580003e-12
1.579580003e-12
1.579580003e-12
1.579580003e-12
1.579580003e-12
1.579580003e-12
1.579580003e-12
1.579580003e-12
1.579580003e-12
1.579580003e-12
1.579580003e-12
1.579580003e-12
1.579580003e-12
1.579580003e-12
1.579580003e-12
1.579580003e-12
1.579580003e-12
1.579580003e-12
1.579580003e-12
1.579580003e-12
1.579580003e-12
1.579580003e-12
1.579580003e-12
1.579580003e-12
1.579580003e-12
1.579580003e-12
1.579580003e-12
1.579580003e-12
1.579580003e-12
1.579580003e-12
1.579580003e-12
1.579580003e-12
1.579580003e-12
1.579580003e-12
1.579580003e-12
1.579580003e-12
1.579580003e-12
1.579580003e-12
1.579580003e-12
1.579580003e-12
1.579580003e-12
1.579580003e-12
1.579580003e-12
1.579580003e-12
1.579580003e-12
1.579580003e-12
1.579580003e-12
1.579580003e-12
1.579580003e-12
1.579580003e-12
1.579580003e-12
1.579580003e-12
1.579580003e-12
1.579580003e-12
1.579580003e-12
1.579580003e-12
1.579580003e-12
1.579580003e-12
1.579580003e-12
1.579580003e-12
1.579580003e-12
1.579580003e-12
1.579580003e-12
1.579580003e-12
1.579580003e-12
1.579580003e-12
1.579580003e-12
1.579580003e-12
1.579580003e-12
1.579580003e-12
1.579580003e-12
1.579580003e-12
1.579580003e-12
1.579580003e-12
1.579580003e-12
1.579580003e-12
1.579580003e-12
1.579580003e-12
1.579580003e-12
1.579580003e-12
1.579580003e-12
1.579580003e-12
1.579580003e-12
1.579580003e-12
1.579580003e-12
1.579580003e-12
1.579580003e-12
1.579580003e-12
1.579580003e-12
1.579580004e-12
1.579580004e-12
1.579580006e-12
1.579580012e-12
1.579580036e-12
1.579580121e-12
1.579580399e-12
1.579581261e-12
1.579583765e-12
1.579590573e-12
1.579607803e-12
1.579648149e-12
1.57973471e-12
1.579901981e-12
1.580183263e-12
1.580559735e-12
1.5807013e-12
1.580740997e-12
1.580782243e-12
1.580825115e-12
1.580869673e-12
1.580915982e-12
1.58096411e-12
1.581014137e-12
1.581066146e-12
1.581120225e-12
1.581176471e-12
1.581234981e-12
1.581295861e-12
1.581359219e-12
1.581425171e-12
1.581493838e-12
1.581565348e-12
1.581639834e-12
1.58171744e-12
1.581798313e-12
1.581882612e-12
1.581970502e-12
1.582062158e-12
1.582157765e-12
1.582257516e-12
1.582361618e-12
1.582470287e-12
1.582583751e-12
1.582702251e-12
1.582826042e-12
1.582955392e-12
1.583090585e-12
1.583231919e-12
1.583379709e-12
1.58353429e-12
1.583696013e-12
1.583865248e-12
1.584042389e-12
1.584227848e-12
1.584422061e-12
1.58462549e-12
1.584838621e-12
1.585061967e-12
1.585296069e-12
1.585541499e-12
1.585798859e-12
1.586068786e-12
1.586351949e-12
1.586649057e-12
1.586960855e-12
1.58728813e-12
1.587631711e-12
1.587992471e-12
1.588371332e-12
1.588769263e-12
1.589187288e-12
1.589626481e-12
1.590087978e-12
1.59057297e-12
1.591082714e-12
1.591618532e-12
1.592181813e-12
1.592774019e-12
1.593396689e-12
1.594051437e-12
1.594739962e-12
1.595464048e-12
1.596225569e-12
1.597026492e-12
1.597868882e-12
1.598754905e-12
1.599686836e-12
1.600667058e-12
1.601698069e-12
1.602782489e-12
1.60392306e-12
1.605122656e-12
1.606384285e-12
1.607711094e-12
1.609106378e-12
1.610573579e-12
1.612116298e-12
1.613738297e-12
1.615443507e-12
1.617236031e-12
1.619120154e-12
1.621100346e-12
1.623181269e-12
1.625367783e-12
1.627664954e-12
1.63007806e-12
1.632612597e-12
1.635274284e-12
1.638069074e-12
1.641003156e-12
1.644082967e-12
1.647315193e-12
1.65070678e-12
1.654264942e-12
1.657997162e-12
1.661911204e-12
1.66601512e-12
1.670317254e-12
1.674826249e-12
1.679551058e-12
1.684500944e-12
1.689685492e-12
1.695114615e-12
1.700798556e-12
1.7067479e-12
1.712973575e-12
1.719486862e-12
1.726299398e-12
1.733423183e-12
1.740870586e-12
1.748654347e-12
1.756787584e-12
1.765283799e-12
1.774156881e-12
1.783421106e-12
1.793091148e-12
1.803182078e-12
1.813709367e-12
1.824688887e-12
1.83613692e-12
1.848070152e-12
1.860505676e-12
1.873460998e-12
1.886954031e-12
1.901003098e-12
1.915626932e-12
1.930844672e-12
1.946675865e-12
1.963140462e-12
1.980258814e-12
1.998051673e-12
2.016540182e-12
2.035745877e-12
2.055690678e-12
2.076396883e-12
2.097887166e-12
2.120184566e-12
2.143312481e-12
2.167294661e-12
2.1921552e-12
2.217918523e-12
2.24460938e-12
2.272252837e-12
2.300874259e-12
2.330499304e-12
2.361153912e-12
2.392864286e-12
2.425656886e-12
2.459558411e-12
2.494595788e-12
2.530796155e-12
2.568186848e-12
2.606795387e-12
2.646649458e-12
2.687776898e-12
2.73020568e-12
2.773963896e-12
2.819079742e-12
2.865581497e-12
2.913497512e-12
2.962856191e-12
3.013685973e-12
3.066015319e-12
3.119872691e-12
3.17528654e-12
3.232285287e-12
3.29089731e-12
3.351150927e-12
3.413074383e-12
3.476695833e-12
3.542043333e-12
3.609144824e-12
3.678028121e-12
3.748720901e-12
3.821250695e-12
3.895644878e-12
3.971930661e-12
4.050135086e-12
4.130285017e-12
4.212407142e-12
4.296527965e-12
4.38267381e-12
4.47087082e-12
4.561144961e-12
4.653522024e-12
4.748027639e-12
4.844687278e-12
4.943526267e-12
5.044569805e-12
5.147842975e-12
5.253370766e-12
5.361178094e-12
5.471289825e-12
5.583730808e-12
5.698525899e-12
5.815699999e-12
5.93527809e-12
6.057285274e-12
6.181746821e-12
6.308688212e-12
6.438135193e-12
6.570113831e-12
6.704650569e-12
6.841772296e-12
6.981506406e-12
7.123880878e-12
7.268924345e-12
7.416666179e-12
7.567136577e-12
7.720366645e-12
7.876388498e-12
8.035235359e-12
8.196941661e-12
8.36154316e-12
8.529077046e-12
8.699582068e-12
8.873098658e-12
9.049669058e-12
9.229337465e-12
9.412150166e-12
9.598155694e-12
9.787404974e-12
9.979951491e-12
1.017585145e-11
1.037516396e-11
1.057795121e-11
1.078427862e-11
1.099421511e-11
1.120783321e-11
1.142520935e-11
1.1646424e-11
1.187156194e-11
1.210071247e-11
1.233396962e-11
1.257143245e-11
1.281320525e-11
1.30593978e-11
1.331012568e-11
1.356551047e-11
1.38256801e-11
1.409076912e-11
1.436091895e-11
1.463627828e-11
1.49170033e-11
1.520325806e-11
1.549521482e-11
1.579305438e-11
1.609696643e-11
1.640714992e-11
1.672381343e-11
1.704717557e-11
1.737746539e-11
1.771492274e-11
1.805979875e-11
1.841235625e-11
1.877287019e-11
1.914162816e-11
1.951893089e-11
1.990509257e-11
2.030044167e-11
2.070532129e-11
2.112008958e-11
2.154512045e-11
2.198080414e-11
2.242754781e-11
2.288577618e-11
2.33559322e-11
2.383847768e-11
2.433389395e-11
2.484268262e-11
2.536536625e-11
2.590248912e-11
2.645461807e-11
2.702234312e-11
2.76062786e-11
2.8207064e-11
2.88253649e-11
2.946187395e-11
3.011731205e-11
3.079242956e-11
3.148800721e-11
3.220485741e-11
3.294382558e-11
3.370579161e-11
3.449167139e-11
3.53024184e-11
3.613902546e-11
3.700252661e-11
3.789399915e-11
3.881456582e-11
3.976539725e-11
4.074771456e-11
4.176279224e-11
4.281196137e-11
4.389661314e-11
4.501820271e-11
4.617825364e-11
4.73783627e-11
4.862020534e-11
4.990554186e-11
5.123622429e-11
5.261420428e-11
5.404154196e-11
5.552041608e-11
5.705313556e-11
5.864215264e-11
6.029007806e-11
6.199969836e-11
6.377399581e-11
6.561617138e-11
6.752967121e-11
6.951821717e-11
7.15858422e-11
7.373693122e-11
7.59762685e-11
7.830909264e-11
8.07411603e-11
8.327882035e-11
8.592909991e-11
8.869980447e-11
9.159963443e-11
9.463832067e-11
9.782678251e-11
1.011773117e-10
1.047037868e-10
1.084219234e-10
1.123495654e-10
1.165070249e-10
1.209174793e-10
1.256074339e-10
1.306072621e-10
1.359518358e-10
1.416812615e-10
1.478417397e-10
1.544865679e-10
1.616773122e-10
1.694851756e-10
1.779925956e-10
1.872951101e-10
1.975035369e-10
2.087465197e-10
2.211735009e-10
2.349581956e-10
2.503026482e-10
2.674419716e-10
2.866498837e-10
3.082451736e-10
3.325992564e-10
3.601449971e-10
3.913870189e-10
4.269137436e-10
4.674114571e-10
5.136807379e-10
5.666556476e-10
6.274261445e-10
6.972642644e-10
7.776546968e-10
8.703304965e-10
9.7731479e-10
1.10096948e-09
1.244052122e-09
1.409782338e-09
1.601919363e-09
1.824852582e-09
2.083707236e-09
2.384467809e-09
2.734122063e-09
3.14082914e-09
3.614115746e-09
4.165105067e-09
4.806783856e-09
5.554313992e-09
6.425395868e-09
7.44069215e-09
8.624321819e-09
1.000443604e-08
1.16138892e-08
1.349102071e-08
1.568056537e-08
1.823471327e-08
2.121434316e-08
2.469045704e-08
2.874584796e-08
3.347703782e-08
3.899652748e-08
4.543540753e-08
5.294638522e-08
6.170729049e-08
7.192513303e-08
8.384079143e-08
9.773442583e-08
1.139317169e-07
1.328110453e-07
1.548117383e-07
1.804435225e-07
2.102973338e-07
2.450576467e-07
2.855164956e-07
3.325893641e-07
3.873331269e-07
4.509662167e-07
5.248911863e-07
6.107198058e-07
7.103008038e-07
8.257503085e-07
9.594849703e-07
1.114257655e-06
1.293195472e-06
1.49983976e-06
1.738187455e-06
2.012733099e-06
2.328510476e-06
2.691132665e-06
3.10682904e-06
3.582477541e-06
4.125630384e-06
4.744531245e-06
5.448122015e-06
6.246037298e-06
7.148585159e-06
8.166713038e-06
9.311958364e-06
1.05963841e-05
1.203250025e-05
1.363317322e-05
1.541152542e-05
1.738082854e-05
1.955439371e-05
2.194546239e-05
2.456710132e-05
2.743210465e-05
3.055290537e-05
3.394149781e-05
3.760937091e-05
4.156745287e-05
4.582606228e-05
5.039486587e-05
5.528283599e-05
6.0498205e-05
6.604841484e-05
7.194007039e-05
7.817893497e-05
8.476738622e-05
9.171599019e-05
9.901329567e-05
0.0001067009033
0.0001147771111
0.0001232504384
0.0001319473425
0.0001409646006
0.0001502880834
0.0001598994204
0.0001697778933
0.0001799026161
0.0001902649818
0.0002008808628
0.0002117936856
0.0002230726079
0.0002347914524
0.0002472198049
0.0002600809801
0.0002736612315
0.0002880972965
0.0003037066015
0.0003203094087
0.0003379925906
0.0003558638099
0.000370585695
0.0003811586387
0.0003868251184
0.0003869586752
0.0003811932354
0.0003695232366
0.00035235059
0.0003304129075
0.0003049148263
0.0002769502797
0.0002479724241
0.0002190645521
0.0001912014848
0.0001651144576
0.0001412816038
0.0001198495889
0.000100857783
8.439336222e-05
7.029590213e-05
5.834361265e-05
4.828876843e-05
3.988756427e-05
3.290139792e-05
2.711326938e-05
2.2334036e-05
1.843359096e-05
1.521770981e-05
1.255295553e-05
1.036299759e-05
8.562343654e-06
7.080781448e-06
5.86086604e-06
4.855634718e-06
4.026944396e-06
3.342831618e-06
2.777790908e-06
2.310690057e-06
1.924199501e-06
1.604102816e-06
1.338732763e-06
1.11850961e-06
9.355631873e-07
7.834235991e-07
6.567682123e-07
5.51214733e-07
4.631520171e-07
3.896017108e-07
3.281050795e-07
2.766304069e-07
2.334971888e-07
1.973140367e-07
1.669277777e-07
1.413816994e-07
1.198812695e-07
1.017659663e-07
8.648611226e-08
7.358380202e-08
6.267718831e-08
5.344752132e-08
4.562844905e-08
3.899717553e-08
3.336714731e-08
2.858199805e-08
2.451052997e-08
2.104255055e-08
1.808541528e-08
1.556115407e-08
1.340408031e-08
1.155879971e-08
9.978550374e-09
8.623817721e-09
7.461177643e-09
6.462329314e-09
5.603285821e-09
4.863696206e-09
4.226277038e-09
3.676335371e-09
3.201368013e-09
2.790724582e-09
2.435323922e-09
2.127415212e-09
1.860376529e-09
1.628544834e-09
1.427072348e-09
1.251805101e-09
1.099180145e-09
9.661384697e-10
8.500511658e-10
7.486567523e-10
6.600079356e-10
5.82426338e-10
5.144639672e-10
4.548703917e-10
4.025647538e-10
3.566118824e-10
3.162018888e-10
2.8063272e-10
2.492952285e-10
2.216603824e-10
1.972683013e-10
1.757188465e-10
1.566635394e-10
1.397986135e-10
1.24859037e-10
1.116133632e-10
9.985929355e-11
8.941984807e-11
8.014005937e-11
7.188411495e-11
6.453288531e-11
5.798178378e-11
5.21389119e-11
4.692345101e-11
4.226426596e-11
3.809869207e-11
3.437148038e-11
3.103387965e-11
2.804283679e-11
2.536029993e-11
2.295261021e-11
2.078997081e-11
1.88459829e-11
1.709723972e-11
1.552297131e-11
1.410473327e-11
1.282613381e-11
1.167259434e-11
1.063113915e-11
9.690210637e-12
8.839506743e-12
8.069837874e-12
7.373000875e-12
6.741667923e-12
6.169288501e-12
5.650002857e-12
5.178565538e-12
4.750277776e-12
4.360927664e-12
4.006737183e-12
3.684315255e-12
3.390616117e-12
3.122902383e-12
2.878712239e-12
2.655830295e-12
2.452261666e-12
2.266208905e-12
2.096051465e-12
1.940327398e-12
1.797717041e-12
1.667028454e-12
1.547184424e-12
1.437210855e-12
1.336226384e-12
1.2434331e-12
1.158108229e-12
1.079596694e-12
1.007304445e-12
9.406924731e-13
8.792714467e-13
8.225968935e-13
7.702648703e-13
7.219080729e-13
6.771923364e-13
6.358134876e-13
5.974945085e-13
5.619829826e-13
5.290487927e-13
4.984820439e-13
4.700911905e-13
4.437013435e-13
4.19152743e-13
3.962993762e-13
3.75007729e-13
3.551556556e-13
3.366313554e-13
3.193324473e-13
3.031651291e-13
2.880434174e-13
2.738884571e-13
2.606278949e-13
2.481953105e-13
2.365297009e-13
2.255750103e-13
2.15279704e-13
2.055963797e-13
1.964814154e-13
1.878946472e-13
1.797990767e-13
1.721606044e-13
1.649477867e-13
1.581316141e-13
1.516853091e-13
1.455841413e-13
1.398052594e-13
1.34327537e-13
1.291314319e-13
1.241988579e-13
1.195130668e-13
1.150585412e-13
1.10820896e-13
1.067867883e-13
1.029438347e-13
9.928053607e-14
9.578620802e-14
9.245091735e-14
8.926542369e-14
8.622112629e-14
8.331001486e-14
8.052462425e-14
7.78579933e-14
7.530362664e-14
7.285546002e-14
7.050782764e-14
6.825543278e-14
6.609332076e-14
6.401685374e-14
6.20216876e-14
6.010375061e-14
5.825922393e-14
5.648452345e-14
5.47762832e-14
5.31313399e-14
5.15467188e-14
5.001962053e-14
4.854740897e-14
4.712760013e-14
4.575785166e-14
4.443595346e-14
4.315981873e-14
4.192747568e-14
4.073706013e-14
3.95868083e-14
3.847505037e-14
3.74002045e-14
3.636077107e-14
3.535532759e-14
3.438252387e-14
3.344107743e-14
3.252976955e-14
3.164744109e-14
3.079298917e-14
2.996536357e-14
2.916356384e-14
2.838663621e-14
2.763367095e-14
2.690379984e-14
2.619619386e-14
2.551006083e-14
2.484464359e-14
2.419921782e-14
2.357309046e-14
2.296559794e-14
2.237610462e-14
2.180400132e-14
2.124870392e-14
2.070965206e-14
2.0186308e-14
1.967815539e-14
1.918469832e-14
1.870546021e-14
1.823998292e-14
1.778782584e-14
1.734856504e-14
1.692179251e-14
1.65071154e-14
1.610415536e-14
1.571254791e-14
1.533194169e-14
1.496199801e-14
1.460239017e-14
1.425280307e-14
1.391293262e-14
1.358248523e-14
1.32611775e-14
1.294873568e-14
1.264489541e-14
1.234940117e-14
1.206200602e-14
1.178247121e-14
1.15105659e-14
1.124606683e-14
1.0988758e-14
1.073843047e-14
1.049488195e-14
1.025791671e-14
1.002734523e-14
9.802983981e-15
9.584655262e-15
9.372186889e-15
9.165412115e-15
8.96416932e-15
8.768301917e-15
8.57765812e-15
8.392090786e-15
8.211457261e-15
8.035619263e-15
7.864442644e-15
7.697797322e-15
7.535557112e-15
7.377599602e-15
7.223806038e-15
7.074061179e-15
6.928253186e-15
6.786273525e-15
6.64801686e-15
6.51338093e-15
6.38226647e-15
6.254577091e-15
6.130219219e-15
6.009101997e-15
5.891137141e-15
5.776238972e-15
5.664324243e-15
5.555312098e-15
5.449123969e-15
5.345683565e-15
5.244916712e-15
5.1467514e-15
5.051117627e-15
4.957947379e-15
4.86717455e-15
4.77873489e-15
4.692565946e-15
4.608607049e-15
4.526799191e-15
4.447085036e-15
4.369408848e-15
4.2937164e-15
4.219955015e-15
4.148073446e-15
4.078021887e-15
4.009751901e-15
3.943216381e-15
3.878369529e-15
3.815166799e-15
3.753564843e-15
3.693521536e-15
3.63499589e-15
3.577948048e-15
3.522339234e-15
3.468131726e-15
3.415288825e-15
3.363774833e-15
3.313555026e-15
3.264595605e-15
3.216863716e-15
3.170327362e-15
3.124955451e-15
3.080717689e-15
3.037584613e-15
2.995527544e-15
2.954518579e-15
2.914530579e-15
2.875537121e-15
2.837512495e-15
2.800431666e-15
2.764270274e-15
2.729004611e-15
2.694611603e-15
2.661068797e-15
2.628354327e-15
2.596446899e-15
2.565325803e-15
2.534970871e-15
2.505362484e-15
2.476481527e-15
2.44830938e-15
2.420827935e-15
2.394019556e-15
2.367867072e-15
2.34235376e-15
2.317463347e-15
2.293179994e-15
2.269488261e-15
2.246373129e-15
2.223819968e-15
2.201814528e-15
2.180342933e-15
2.159391653e-15
2.138947539e-15
2.118997777e-15
2.099529887e-15
2.080531715e-15
2.061991423e-15
2.043897476e-15
2.026238647e-15
2.009004004e-15
1.992182886e-15
1.975764921e-15
1.959740002e-15
1.944098278e-15
1.928830168e-15
1.913926319e-15
1.899377634e-15
1.885175244e-15
1.871310523e-15
1.857775059e-15
1.844560641e-15
1.831659291e-15
1.819063225e-15
1.806764862e-15
1.794756823e-15
1.783031912e-15
1.771583114e-15
1.7604036e-15
1.749486714e-15
1.738825974e-15
1.728415056e-15
1.7182478e-15
1.708318211e-15
1.698620445e-15
1.689148801e-15
1.679897729e-15
1.670861813e-15
1.662035783e-15
1.653414493e-15
1.64499295e-15
1.636766258e-15
1.628729667e-15
1.620878537e-15
1.613208353e-15
1.605714707e-15
1.5983933e-15
1.591239956e-15
1.584250601e-15
1.577421258e-15
1.570748044e-15
1.564227186e-15
1.55785501e-15
1.551627916e-15
1.545542411e-15
1.539595083e-15
1.533782613e-15
1.528101749e-15
1.522549336e-15
1.517122295e-15
1.51181763e-15
1.506632405e-15
1.501563766e-15
1.49660893e-15
1.491765186e-15
1.48702989e-15
1.482400463e-15
1.477874385e-15
1.473449206e-15
1.469122529e-15
1.464892026e-15
1.460755426e-15
1.456710515e-15
1.452755129e-15
1.448887162e-15
1.445104553e-15
1.441405301e-15
1.437787455e-15
1.434249104e-15
1.430788393e-15
1.427403498e-15
1.424092654e-15
1.420854136e-15
1.417686261e-15
1.414587391e-15
1.411555927e-15
1.408590306e-15
1.405689003e-15
1.402850533e-15
1.400073442e-15
1.397356319e-15
1.394697788e-15
1.392096503e-15
1.389551148e-15
1.387060446e-15
1.384623143e-15
1.382238023e-15
1.379903891e-15
1.377619588e-15
1.375383982e-15
1.373195968e-15
1.371054466e-15
1.36895842e-15
1.366906804e-15
1.364898612e-15
1.362932864e-15
1.361008608e-15
1.359124905e-15
1.357280838e-15
1.355475521e-15
1.353708082e-15
1.351977669e-15
1.350283451e-15
1.348624621e-15
1.347000386e-15
1.345409966e-15
1.343852606e-15
1.342327565e-15
1.340834118e-15
1.339371552e-15
1.337939176e-15
1.336536307e-15
1.335162284e-15
1.333816452e-15
1.332498174e-15
1.331206829e-15
1.329941805e-15
1.328702504e-15
1.327488335e-15
1.326298721e-15
1.325133097e-15
1.323990904e-15
1.322871598e-15
1.321774646e-15
1.320699518e-15
1.319645695e-15
1.318612663e-15
1.317599917e-15
1.316606963e-15
1.31563331e-15
1.31467847e-15
1.313741961e-15
1.312823307e-15
1.311922035e-15
1.311037672e-15
1.31016974e-15
1.309317761e-15
1.308481239e-15
1.307659658e-15
1.306852471e-15
1.306059046e-15
1.305278652e-15
1.299027307e-15
1.291637883e-15
1.286292438e-15
1.282609538e-15
1.280316193e-15
1.279228741e-15
1.279222306e-15
1.280213264e-15
1.28214793e-15
1.284994479e-15
1.288737451e-15
1.29337385e-15
1.298910016e-15
1.305359668e-15
1.312742253e-15
1.321081791e-15
1.330406003e-15
1.340745664e-15
1.352134022e-15
1.364606444e-15
1.378200007e-15
1.392953226e-15
1.408905766e-15
1.426098126e-15
1.444571356e-15
1.464366755e-15
1.485525499e-15
1.508088272e-15
1.532094833e-15
1.557583529e-15
1.584590765e-15
1.613150413e-15
1.643293157e-15
1.675045781e-15
1.708430414e-15
1.7434637e-15
1.780155958e-15
1.818510278e-15
1.858521615e-15
1.900175872e-15
1.943449009e-15
1.988306172e-15
2.0347009e-15
2.082574414e-15
2.131855018e-15
2.182457658e-15
2.234283642e-15
2.287220582e-15
2.341142526e-15
2.395910383e-15
2.451372582e-15
2.507366011e-15
2.563717239e-15
2.620244002e-15
2.676756938e-15
2.733061571e-15
2.788960462e-15
2.844255553e-15
2.898750599e-15
2.952253633e-15
3.004579481e-15
3.055552143e-15
3.105007104e-15
3.152793423e-15
3.19877561e-15
3.242835197e-15
3.284872008e-15
3.324805057e-15
3.362573107e-15
3.398134835e-15
3.431468642e-15
3.46257211e-15
3.49146114e-15
3.518168802e-15
3.542743933e-15
3.565249543e-15
3.585761062e-15
3.604364494e-15
3.621154509e-15
3.636232542e-15
3.649704922e-15
3.661681083e-15
3.672271884e-15
3.681588062e-15
3.689738845e-15
3.696830736e-15
3.702966476e-15
3.708244182e-15
3.712756674e-15
3.716590962e-15
3.719827906e-15
3.722542014e-15
3.724801384e-15
3.726667751e-15
3.728196646e-15
3.729437633e-15
3.730434608e-15
3.731226155e-15
3.731845936e-15
3.732323098e-15
3.732682696e-15
3.732946113e-15
3.733131468e-15
3.733254008e-15
3.733326483e-15
3.733359483e-15
3.733361754e-15
3.733340482e-15
3.733301538e-15
3.7332497e-15
3.733188839e-15
3.733122082e-15
3.733051936e-15
3.732980409e-15
3.732909092e-15
3.732839229e-15
3.73277178e-15
3.73270746e-15
3.732646777e-15
3.732590061e-15
3.732537483e-15
3.732489083e-15
3.732444782e-15
3.7324044e-15
3.732367677e-15
3.732334284e-15
3.732303845e-15
3.732275952e-15
3.732250179e-15
3.732226104e-15
3.732203316e-15
3.732181434e-15
3.732160114e-15
3.732139061e-15
3.732118033e-15
3.732096843e-15
3.732075366e-15
3.732053532e-15
3.732031322e-15
3.732008768e-15
3.731985941e-15
3.731962945e-15
3.731939906e-15
3.731916967e-15
3.731894279e-15
3.731871987e-15
3.731850232e-15
3.731829139e-15
3.731808816e-15
3.731789347e-15
3.731770795e-15
3.731753198e-15
3.731736573e-15
3.731720914e-15
3.731706196e-15
3.731692381e-15
3.731679416e-15
3.731667243e-15
3.731655795e-15
3.731645005e-15
3.731634808e-15
3.731625139e-15
3.731615942e-15
3.731607165e-15
3.731598765e-15
3.731590704e-15
3.731582956e-15
3.7315755e-15
3.731568322e-15
3.731561416e-15
3.731554782e-15
3.731548422e-15
3.731542344e-15
3.731536562e-15
3.731531087e-15
3.731525936e-15
3.731521127e-15
3.731516677e-15
3.731512605e-15
3.731508929e-15
3.731505667e-15
3.731502834e-15
3.731500445e-15
3.731498512e-15
3.731497044e-15
3.731496047e-15
3.731495523e-15
3.73149547e-15
3.731495881e-15
3.731496744e-15
3.731498042e-15
3.731499754e-15
3.731501851e-15
3.731504303e-15
3.731507071e-15
3.731510116e-15
3.731513392e-15
3.731516852e-15
3.731520446e-15
3.731524123e-15
3.731527829e-15
3.731531514e-15
3.731535124e-15
3.731538612e-15
3.731541928e-15
3.731545028e-15
3.731547871e-15
3.731550421e-15
3.731552645e-15
3.731554515e-15
3.731556008e-15
3.731557108e-15
3.731557802e-15
3.731558084e-15
3.73155795e-15
3.731557406e-15
3.731556457e-15
3.731555117e-15
3.7315534e-15
3.731551326e-15
3.731548918e-15
3.731546199e-15
3.731543198e-15
3.731539942e-15
3.731536462e-15
3.731532787e-15
3.73152895e-15
3.731524981e-15
3.73152091e-15
3.731516769e-15
3.731512586e-15
3.73150839e-15
3.731504207e-15
3.731500063e-15
3.731495983e-15
3.731491988e-15
3.731488098e-15
3.731484332e-15
3.731480707e-15
3.731477237e-15
3.731473935e-15
3.73147081e-15
3.731467872e-15
3.731465127e-15
3.73146258e-15
3.731460239e-15
3.731458116e-15
3.731456241e-15
3.7314547e-15
3.731453693e-15
)
;

boundaryField
{
    inlet
    {
        type            fixedValue;
        value           uniform 0;
    }
    outlet
    {
        type            zeroGradient;
    }
    wall
    {
        type            empty;
    }
}


// ************************************************************************* //
