/*--------------------------------*- C++ -*----------------------------------*\
  =========                 |
  \\      /  F ield         | OpenFOAM: The Open Source CFD Toolbox
   \\    /   O peration     | Website:  https://openfoam.org
    \\  /    A nd           | Version:  7
     \\/     M anipulation  |
\*---------------------------------------------------------------------------*/
FoamFile
{
    version     2.0;
    format      ascii;
    class       volScalarField;
    location    "0.000558243009";
    object      CH3O2H_0;
}
// * * * * * * * * * * * * * * * * * * * * * * * * * * * * * * * * * * * * * //

dimensions      [0 0 0 0 0 0 0];

internalField   nonuniform List<scalar> 
1500
(
1.985006009e-14
7.762331359e-14
1.601568805e-13
2.404766161e-13
3.004401844e-13
3.371123255e-13
3.561979275e-13
3.648537307e-13
3.683324018e-13
3.695877296e-13
3.699989952e-13
3.70122467e-13
3.701567083e-13
3.701655395e-13
3.701676701e-13
3.701681535e-13
3.701682571e-13
3.701682781e-13
3.701682822e-13
3.70168283e-13
3.701682832e-13
3.701682832e-13
3.701682833e-13
3.701682833e-13
3.701682833e-13
3.701682833e-13
3.701682833e-13
3.701682833e-13
3.701682832e-13
3.701682832e-13
3.701682832e-13
3.701682832e-13
3.701682832e-13
3.701682832e-13
3.701682832e-13
3.701682832e-13
3.701682832e-13
3.701682832e-13
3.701682832e-13
3.701682833e-13
3.701682833e-13
3.701682833e-13
3.701682833e-13
3.701682833e-13
3.701682833e-13
3.701682833e-13
3.701682833e-13
3.701682833e-13
3.701682833e-13
3.701682833e-13
3.701682833e-13
3.701682834e-13
3.701682834e-13
3.701682834e-13
3.701682834e-13
3.701682834e-13
3.701682834e-13
3.701682834e-13
3.701682834e-13
3.701682834e-13
3.701682834e-13
3.701682834e-13
3.701682834e-13
3.701682834e-13
3.701682834e-13
3.701682834e-13
3.701682834e-13
3.701682834e-13
3.701682834e-13
3.701682834e-13
3.701682834e-13
3.701682834e-13
3.701682833e-13
3.701682833e-13
3.701682833e-13
3.701682833e-13
3.701682833e-13
3.701682833e-13
3.701682833e-13
3.701682833e-13
3.701682833e-13
3.701682833e-13
3.701682833e-13
3.701682833e-13
3.701682833e-13
3.701682833e-13
3.701682833e-13
3.701682833e-13
3.701682833e-13
3.701682833e-13
3.701682833e-13
3.701682833e-13
3.701682833e-13
3.701682833e-13
3.701682833e-13
3.701682833e-13
3.701682833e-13
3.701682833e-13
3.701682833e-13
3.701682833e-13
3.701682834e-13
3.701682834e-13
3.701682834e-13
3.701682834e-13
3.701682834e-13
3.701682834e-13
3.701682834e-13
3.701682834e-13
3.701682834e-13
3.701682834e-13
3.701682834e-13
3.701682834e-13
3.701682834e-13
3.701682834e-13
3.701682834e-13
3.701682834e-13
3.701682834e-13
3.701682834e-13
3.701682834e-13
3.701682834e-13
3.701682834e-13
3.701682834e-13
3.701682834e-13
3.701682834e-13
3.701682834e-13
3.701682834e-13
3.701682834e-13
3.701682834e-13
3.701682834e-13
3.701682834e-13
3.701682834e-13
3.701682834e-13
3.701682834e-13
3.701682834e-13
3.701682834e-13
3.701682834e-13
3.701682834e-13
3.701682834e-13
3.701682834e-13
3.701682834e-13
3.701682834e-13
3.701682834e-13
3.701682834e-13
3.701682834e-13
3.701682834e-13
3.701682834e-13
3.701682834e-13
3.701682834e-13
3.701682834e-13
3.701682834e-13
3.701682834e-13
3.701682834e-13
3.701682834e-13
3.701682834e-13
3.701682834e-13
3.701682834e-13
3.701682834e-13
3.701682833e-13
3.701682833e-13
3.701682833e-13
3.701682833e-13
3.701682833e-13
3.701682833e-13
3.701682833e-13
3.701682833e-13
3.701682833e-13
3.701682833e-13
3.701682833e-13
3.701682833e-13
3.701682833e-13
3.701682833e-13
3.701682833e-13
3.701682833e-13
3.701682833e-13
3.701682833e-13
3.701682833e-13
3.701682833e-13
3.701682833e-13
3.701682833e-13
3.701682833e-13
3.701682833e-13
3.701682833e-13
3.701682833e-13
3.701682833e-13
3.701682833e-13
3.701682833e-13
3.701682833e-13
3.701682834e-13
3.701682834e-13
3.701682834e-13
3.701682834e-13
3.701682834e-13
3.701682834e-13
3.701682834e-13
3.701682834e-13
3.701682834e-13
3.701682834e-13
3.701682834e-13
3.701682834e-13
3.701682834e-13
3.701682834e-13
3.701682834e-13
3.701682834e-13
3.701682834e-13
3.701682834e-13
3.701682833e-13
3.701682833e-13
3.701682833e-13
3.701682833e-13
3.701682833e-13
3.701682833e-13
3.701682833e-13
3.701682833e-13
3.701682833e-13
3.701682833e-13
3.701682833e-13
3.701682832e-13
3.701682832e-13
3.701682832e-13
3.701682832e-13
3.701682832e-13
3.701682832e-13
3.701682832e-13
3.701682832e-13
3.701682832e-13
3.701682832e-13
3.701682832e-13
3.701682832e-13
3.701682831e-13
3.701682831e-13
3.701682831e-13
3.70168283e-13
3.70168283e-13
3.701682829e-13
3.701682829e-13
3.70168283e-13
3.701682834e-13
3.701682851e-13
3.701682913e-13
3.701683129e-13
3.701683844e-13
3.701686056e-13
3.701692487e-13
3.701709968e-13
3.70175421e-13
3.701857809e-13
3.702080076e-13
3.702509587e-13
3.70323185e-13
3.704198538e-13
3.704562043e-13
3.704663977e-13
3.704769886e-13
3.704879971e-13
3.704994386e-13
3.705113294e-13
3.705236877e-13
3.705365334e-13
3.705498879e-13
3.705637743e-13
3.705782167e-13
3.705932408e-13
3.706088731e-13
3.70625142e-13
3.706420769e-13
3.706597089e-13
3.706780709e-13
3.706971973e-13
3.707171245e-13
3.707378909e-13
3.707595368e-13
3.707821048e-13
3.708056398e-13
3.708301893e-13
3.708558031e-13
3.70882534e-13
3.709104376e-13
3.709395724e-13
3.709700005e-13
3.71001787e-13
3.71035001e-13
3.710697152e-13
3.711060063e-13
3.711439554e-13
3.711836481e-13
3.712251746e-13
3.712686303e-13
3.713141157e-13
3.713617371e-13
3.714116066e-13
3.714638424e-13
3.715185693e-13
3.715759192e-13
3.716360311e-13
3.716990517e-13
3.717651357e-13
3.718344464e-13
3.719071561e-13
3.719834464e-13
3.720635088e-13
3.721475453e-13
3.722357687e-13
3.723284035e-13
3.724256861e-13
3.725278656e-13
3.726352044e-13
3.727479791e-13
3.728664806e-13
3.729910153e-13
3.731219058e-13
3.732594913e-13
3.734041287e-13
3.735561937e-13
3.737160807e-13
3.73884205e-13
3.740610023e-13
3.74246931e-13
3.74442472e-13
3.746481307e-13
3.748644371e-13
3.750919478e-13
3.753312465e-13
3.755829451e-13
3.758476854e-13
3.761261398e-13
3.764190127e-13
3.76727042e-13
3.77051e-13
3.77391695e-13
3.777499726e-13
3.781267172e-13
3.785228532e-13
3.789393468e-13
3.793772072e-13
3.798374882e-13
3.803212899e-13
3.808297601e-13
3.813640959e-13
3.819255456e-13
3.8251541e-13
3.831350443e-13
3.837858595e-13
3.844693247e-13
3.851869682e-13
3.859403795e-13
3.867312112e-13
3.875611806e-13
3.884320713e-13
3.893457353e-13
3.903040947e-13
3.913091432e-13
3.923629483e-13
3.934676526e-13
3.94625476e-13
3.958387171e-13
3.971097551e-13
3.984410513e-13
3.99835151e-13
4.012946851e-13
4.028223714e-13
4.044210167e-13
4.060935178e-13
4.078428634e-13
4.096721352e-13
4.115845093e-13
4.13583258e-13
4.156717504e-13
4.178534537e-13
4.201319348e-13
4.225108607e-13
4.24994e-13
4.275852231e-13
4.302885037e-13
4.331079189e-13
4.360476499e-13
4.391119828e-13
4.423053084e-13
4.456321229e-13
4.490970278e-13
4.527047296e-13
4.564600405e-13
4.603678773e-13
4.644332612e-13
4.686613179e-13
4.730572758e-13
4.776264662e-13
4.823743219e-13
4.87306376e-13
4.924282609e-13
4.977457068e-13
5.032645401e-13
5.089906817e-13
5.149301453e-13
5.210890352e-13
5.274735442e-13
5.340899515e-13
5.409446198e-13
5.480439934e-13
5.553945946e-13
5.630030217e-13
5.708759452e-13
5.790201055e-13
5.874423088e-13
5.961494243e-13
6.051483806e-13
6.144461617e-13
6.240498041e-13
6.339663923e-13
6.442030551e-13
6.547669621e-13
6.656653191e-13
6.769053644e-13
6.884943648e-13
7.004396112e-13
7.127484148e-13
7.254281028e-13
7.384860143e-13
7.519294965e-13
7.657659005e-13
7.800025771e-13
7.946468737e-13
8.097061297e-13
8.251876734e-13
8.410988187e-13
8.57446861e-13
8.742390748e-13
8.914827106e-13
9.09184992e-13
9.273531134e-13
9.459942379e-13
9.651154953e-13
9.847239807e-13
1.004826753e-12
1.025430834e-12
1.04654321e-12
1.068170828e-12
1.090320598e-12
1.112999397e-12
1.136214065e-12
1.159971412e-12
1.184278215e-12
1.209141227e-12
1.234567179e-12
1.260562781e-12
1.287134732e-12
1.314289723e-12
1.342034445e-12
1.370375595e-12
1.399319885e-12
1.428874053e-12
1.45904487e-12
1.48983915e-12
1.521263768e-12
1.553325664e-12
1.586031865e-12
1.619389495e-12
1.653405791e-12
1.688088122e-12
1.723444006e-12
1.759481131e-12
1.796207371e-12
1.833630813e-12
1.871759776e-12
1.910602838e-12
1.95016886e-12
1.990467015e-12
2.031506811e-12
2.073298128e-12
2.115851244e-12
2.159176871e-12
2.203286185e-12
2.248190866e-12
2.293903134e-12
2.340435786e-12
2.38780224e-12
2.436016574e-12
2.485093573e-12
2.535048771e-12
2.585898504e-12
2.637659953e-12
2.690351201e-12
2.74399128e-12
2.798600234e-12
2.854199167e-12
2.91081031e-12
2.968457078e-12
3.027164132e-12
3.086957448e-12
3.147864383e-12
3.209913743e-12
3.273135858e-12
3.337562655e-12
3.403227734e-12
3.470166448e-12
3.538415988e-12
3.60801546e-12
3.679005981e-12
3.751430763e-12
3.825335207e-12
3.900766998e-12
3.977776208e-12
4.056415393e-12
4.136739698e-12
4.218806971e-12
4.302677869e-12
4.388415975e-12
4.476087922e-12
4.56576351e-12
4.657515837e-12
4.751421431e-12
4.84756039e-12
4.946016522e-12
5.046877506e-12
5.150234997e-12
5.256184869e-12
5.364827329e-12
5.476267051e-12
5.590613408e-12
5.707980636e-12
5.828488035e-12
5.952260177e-12
6.079427114e-12
6.210124596e-12
6.3444943e-12
6.482684068e-12
6.624848157e-12
6.771147506e-12
6.921750026e-12
7.076830845e-12
7.236572704e-12
7.401166275e-12
7.570810532e-12
7.745713126e-12
7.926090855e-12
8.112170142e-12
8.304187473e-12
8.502389942e-12
8.707035863e-12
8.918395431e-12
9.136751441e-12
9.362400093e-12
9.595651871e-12
9.836832533e-12
1.008628421e-11
1.034436667e-11
1.061145866e-11
1.088795953e-11
1.117429101e-11
1.147089921e-11
1.177825693e-11
1.209686633e-11
1.24272619e-11
1.277001391e-11
1.312573242e-11
1.349507179e-11
1.387873596e-11
1.427748452e-11
1.469213972e-11
1.512359459e-11
1.557282233e-11
1.604088721e-11
1.652895723e-11
1.703831881e-11
1.757039389e-11
1.812675975e-11
1.870917219e-11
1.93195924e-11
1.996021836e-11
2.063352135e-11
2.134228861e-11
2.208967297e-11
2.287925085e-11
2.371508988e-11
2.460182782e-11
2.554476468e-11
2.654997031e-11
2.762440994e-11
2.877609088e-11
3.001423378e-11
3.134947273e-11
3.279408893e-11
3.436228374e-11
3.607049766e-11
3.793778294e-11
3.998623909e-11
4.224152154e-11
4.473343621e-11
4.749663409e-11
5.057142298e-11
5.400471592e-11
5.785113962e-11
6.217432955e-11
6.704844337e-11
7.255992942e-11
7.880959324e-11
8.59150123e-11
9.401335758e-11
1.032646906e-10
1.138558156e-10
1.260047809e-10
1.39966138e-10
1.56037086e-10
1.745646505e-10
1.95954071e-10
2.206785983e-10
2.492909413e-10
2.824366374e-10
3.20869671e-10
3.654707162e-10
4.172684436e-10
4.774644052e-10
5.474620943e-10
6.289008807e-10
7.236956343e-10
8.340829871e-10
9.626753407e-10
1.112523909e-09
1.287192298e-09
1.490842377e-09
1.72833447e-09
2.005344252e-09
2.328499091e-09
2.705537059e-09
3.145492324e-09
3.658911255e-09
4.258104255e-09
4.957439137e-09
5.773682779e-09
6.726398845e-09
7.83841058e-09
9.136339051e-09
1.06512288e-08
1.241927463e-08
1.448266538e-08
1.689056259e-08
1.970023479e-08
2.297837078e-08
2.68025985e-08
3.126323931e-08
3.646533159e-08
4.253096094e-08
4.96019387e-08
5.784287447e-08
6.744469231e-08
7.862864383e-08
9.165087447e-08
1.068076009e-07
1.24440958e-07
1.449455707e-07
1.687759016e-07
1.964544142e-07
2.285805751e-07
2.658406962e-07
3.09018582e-07
3.590069044e-07
4.168191653e-07
4.836020316e-07
5.606477319e-07
6.494060877e-07
7.514956122e-07
8.687129554e-07
1.003039795e-06
1.156646092e-06
1.331888437e-06
1.531302066e-06
1.757584982e-06
2.013572569e-06
2.302201143e-06
2.626459065e-06
2.989324398e-06
3.39368865e-06
3.842266918e-06
4.337495685e-06
4.881420633e-06
5.47557798e-06
6.120873968e-06
6.817467989e-06
7.564665415e-06
8.360826261e-06
9.203295307e-06
1.008835825e-05
1.101122691e-05
1.196605456e-05
1.29459805e-05
1.39432009e-05
1.494906141e-05
1.595416576e-05
1.694849392e-05
1.79215229e-05
1.886234384e-05
1.975976783e-05
2.060241451e-05
2.137877526e-05
2.207724241e-05
2.26860935e-05
2.319341609e-05
2.358695509e-05
2.385372504e-05
2.398009042e-05
2.395036106e-05
2.374641788e-05
2.334647262e-05
2.27249102e-05
2.186745541e-05
2.073929576e-05
1.931489884e-05
1.757883194e-05
1.553784508e-05
1.323759042e-05
1.077986157e-05
8.322271595e-06
6.057539763e-06
4.159691918e-06
2.722244945e-06
1.719209677e-06
1.080805936e-06
6.824914844e-07
4.35064015e-07
2.792057788e-07
1.816415803e-07
1.194552222e-07
7.941567487e-08
5.338377499e-08
3.628346846e-08
2.493378745e-08
1.732424739e-08
1.21711886e-08
8.647213583e-09
6.213388908e-09
4.51169622e-09
3.314622788e-09
2.458221524e-09
1.842572311e-09
1.39317625e-09
1.061370693e-09
8.137737824e-10
6.272816593e-10
4.850376234e-10
3.755302377e-10
2.913821082e-10
2.264697824e-10
1.762508465e-10
1.373252698e-10
1.071029134e-10
8.361503863e-11
6.534352256e-11
5.110528304e-11
4.010865245e-11
3.151043404e-11
2.474327622e-11
1.945480758e-11
1.531613074e-11
1.207278354e-11
9.527804374e-12
7.528446556e-12
5.956490957e-12
4.718470899e-12
3.742708727e-12
2.972791611e-12
2.364594231e-12
1.883571623e-12
1.502656916e-12
1.200625336e-12
9.608194221e-13
7.701548079e-13
6.183443401e-13
4.9729222e-13
4.006206855e-13
3.233000139e-13
2.613591209e-13
2.11659055e-13
1.717155913e-13
1.39560177e-13
1.136308474e-13
9.268657776e-14
7.573997347e-14
6.200432021e-14
5.085188748e-14
4.178105854e-14
3.439038919e-14
2.835811105e-14
2.342591727e-14
1.938611977e-14
1.607146416e-14
1.334704169e-14
1.110385782e-14
9.25371114e-15
7.725109918e-15
6.460011398e-15
5.411214335e-15
4.540270828e-15
3.815811535e-15
3.212200437e-15
2.708452653e-15
2.28736255e-15
1.934800196e-15
1.639142786e-15
1.390814422e-15
1.181913033e-15
1.005907459e-15
8.573911225e-16
7.318814069e-16
6.25656005e-16
5.356192243e-16
4.59192592e-16
3.942252101e-16
3.389201812e-16
2.917741339e-16
2.515274404e-16
2.171231744e-16
1.876732259e-16
1.62430283e-16
1.407646316e-16
1.221449163e-16
1.061221645e-16
9.231650064e-17
8.040608204e-17
7.011787288e-17
6.121993972e-17
5.351500912e-17
4.683507342e-17
4.10368681e-17
3.59980749e-17
3.16141301e-17
2.779553806e-17
2.446560717e-17
2.155853932e-17
1.901781578e-17
1.679483169e-17
1.484773961e-17
1.31404688e-17
1.164189263e-17
1.032512082e-17
9.166897233e-18
8.147086663e-18
7.248237204e-18
6.455206469e-18
5.754842077e-18
5.135708182e-18
4.587851174e-18
4.102598715e-18
3.672387175e-18
3.290613304e-18
2.951506605e-18
2.650019389e-18
2.38173198e-18
2.142770891e-18
1.929738126e-18
1.739650033e-18
1.569884365e-18
1.418134409e-18
1.282369187e-18
1.160798906e-18
1.051844929e-18
9.541136501e-19
8.663737483e-19
7.875363662e-19
7.166378147e-19
6.528244759e-19
5.953396078e-19
5.435118047e-19
4.967448938e-19
4.54509084e-19
4.16333203e-19
3.817978851e-19
3.505295868e-19
3.221953259e-19
2.964980528e-19
2.731725749e-19
2.519819644e-19
2.327143907e-19
2.151803246e-19
1.992100676e-19
1.846515697e-19
1.713684968e-19
1.592385213e-19
1.481518066e-19
1.380096637e-19
1.287233596e-19
1.202130585e-19
1.124068814e-19
1.052400701e-19
9.865424285e-20
9.259673185e-20
8.701999291e-20
8.188107915e-20
7.714117122e-20
7.276515803e-20
6.872126213e-20
6.498070482e-20
6.151740659e-20
5.830771891e-20
5.533018408e-20
5.256531991e-20
4.999542675e-20
4.760441422e-20
4.537764564e-20
4.330179842e-20
4.13647383e-20
3.955540648e-20
3.786371791e-20
3.628046967e-20
3.479725855e-20
3.340640665e-20
3.210089427e-20
3.087429941e-20
2.972074305e-20
2.863483982e-20
2.761165326e-20
2.664665551e-20
2.573569071e-20
2.487494195e-20
2.406090127e-20
2.329034253e-20
2.256029669e-20
2.186802954e-20
2.121102137e-20
2.058694856e-20
1.999366683e-20
1.942919601e-20
1.889170617e-20
1.837950511e-20
1.789102676e-20
1.742482082e-20
1.697954324e-20
1.655394748e-20
1.614687662e-20
1.575725612e-20
1.538408722e-20
1.502644093e-20
1.468345247e-20
1.435431627e-20
1.403828132e-20
1.373464699e-20
1.344275913e-20
1.316200648e-20
1.289181755e-20
1.26316575e-20
1.23810255e-20
1.213945216e-20
1.190649728e-20
1.168174764e-20
1.146481514e-20
1.125533498e-20
1.105296396e-20
1.085737903e-20
1.066827583e-20
1.048536743e-20
1.030838313e-20
1.013706735e-20
9.971178633e-21
9.810488675e-21
9.65478149e-21
9.503852583e-21
9.357508213e-21
9.215564712e-21
9.077847835e-21
8.944192174e-21
8.814440609e-21
8.688443797e-21
8.566059705e-21
8.447153156e-21
8.331595438e-21
8.219263904e-21
8.110041635e-21
8.0038171e-21
7.900483851e-21
7.799940234e-21
7.702089127e-21
7.60683768e-21
7.514097094e-21
7.423782387e-21
7.335812203e-21
7.250108616e-21
7.166596949e-21
7.085205607e-21
7.005865919e-21
6.92851199e-21
6.853080562e-21
6.779510884e-21
6.70774459e-21
6.637725584e-21
6.569399927e-21
6.50271574e-21
6.437623101e-21
6.374073959e-21
6.312022045e-21
6.251422793e-21
6.192233269e-21
6.134412084e-21
6.077919341e-21
6.022716555e-21
5.968766607e-21
5.916033675e-21
5.864483178e-21
5.814081733e-21
5.764797096e-21
5.716598125e-21
5.669454725e-21
5.623337809e-21
5.578219257e-21
5.53407188e-21
5.49086938e-21
5.448586318e-21
5.40719808e-21
5.366680839e-21
5.327011537e-21
5.288167844e-21
5.250128138e-21
5.212871477e-21
5.176377569e-21
5.140626758e-21
5.105599989e-21
5.071278795e-21
5.037645274e-21
5.004682063e-21
4.972372326e-21
4.940699735e-21
4.909648446e-21
4.879203088e-21
4.849348744e-21
4.820070937e-21
4.791355613e-21
4.763189126e-21
4.735558228e-21
4.708450053e-21
4.681852102e-21
4.655752237e-21
4.630138662e-21
4.604999917e-21
4.580324865e-21
4.556102681e-21
4.532322841e-21
4.508975118e-21
4.486049563e-21
4.463536506e-21
4.441426538e-21
4.41971051e-21
4.398379521e-21
4.377424911e-21
4.356838254e-21
4.336611352e-21
4.316736224e-21
4.297205102e-21
4.278010423e-21
4.259144828e-21
4.240601148e-21
4.222372403e-21
4.204451796e-21
4.186832705e-21
4.169508681e-21
4.152473439e-21
4.135720859e-21
4.119244975e-21
4.103039974e-21
4.087100191e-21
4.071420103e-21
4.055994326e-21
4.040817612e-21
4.025884843e-21
4.011191031e-21
3.996731308e-21
3.982500929e-21
3.968495263e-21
3.954709796e-21
3.941140121e-21
3.927781939e-21
3.914631056e-21
3.901683379e-21
3.888934913e-21
3.876381759e-21
3.864020109e-21
3.851846248e-21
3.839856546e-21
3.828047463e-21
3.816415537e-21
3.804957392e-21
3.793669726e-21
3.782549316e-21
3.771593013e-21
3.760797741e-21
3.750160493e-21
3.739678334e-21
3.729348391e-21
3.719167859e-21
3.709133997e-21
3.699244125e-21
3.689495622e-21
3.679885926e-21
3.670412532e-21
3.66107299e-21
3.651864906e-21
3.642785937e-21
3.63383379e-21
3.625006225e-21
3.616301049e-21
3.607716117e-21
3.59924933e-21
3.590898633e-21
3.582662017e-21
3.574537512e-21
3.566523194e-21
3.558617178e-21
3.550817618e-21
3.543122709e-21
3.535530681e-21
3.528039801e-21
3.520648374e-21
3.513354738e-21
3.506157267e-21
3.499054367e-21
3.492044476e-21
3.485126065e-21
3.478297636e-21
3.47155772e-21
3.464904878e-21
3.4583377e-21
3.451854806e-21
3.445454839e-21
3.439136472e-21
3.432898405e-21
3.426739359e-21
3.420658085e-21
3.414653355e-21
3.408723968e-21
3.402868742e-21
3.397086522e-21
3.391376171e-21
3.385736578e-21
3.380166649e-21
3.374665314e-21
3.369231521e-21
3.36386424e-21
3.358562458e-21
3.353325182e-21
3.348151437e-21
3.343040267e-21
3.337990731e-21
3.333001911e-21
3.328072898e-21
3.323202806e-21
3.318390762e-21
3.313635909e-21
3.308937406e-21
3.304294427e-21
3.299706161e-21
3.295171811e-21
3.290690595e-21
3.286261743e-21
3.281884499e-21
3.277558123e-21
3.273281885e-21
3.269055067e-21
3.264876966e-21
3.260746891e-21
3.25666416e-21
3.252628106e-21
3.248638071e-21
3.24469341e-21
3.240793487e-21
3.236937678e-21
3.233125369e-21
3.229355957e-21
3.225628847e-21
3.221943457e-21
3.218299211e-21
3.214695546e-21
3.211131904e-21
3.20760774e-21
3.204122516e-21
3.200675703e-21
3.197266781e-21
3.193895237e-21
3.190560566e-21
3.187262273e-21
3.183999869e-21
3.180772874e-21
3.177580813e-21
3.174423221e-21
3.171299638e-21
3.168209613e-21
3.165152701e-21
3.162128462e-21
3.159136466e-21
3.156176287e-21
3.153247506e-21
3.150349709e-21
3.14748249e-21
3.144645447e-21
3.141838185e-21
3.139060315e-21
3.136311451e-21
3.133591216e-21
3.130899235e-21
3.128235139e-21
3.125598566e-21
3.122989156e-21
3.120406556e-21
3.117850416e-21
3.115320392e-21
3.112816143e-21
3.110337334e-21
3.107883632e-21
3.10545471e-21
3.103050244e-21
3.100669915e-21
3.098313406e-21
3.095980405e-21
3.093670604e-21
3.091383696e-21
3.089119381e-21
3.08687736e-21
3.084657338e-21
3.082459022e-21
3.080282124e-21
3.078126357e-21
3.075991438e-21
3.073877085e-21
3.071783023e-21
3.069708974e-21
3.067654666e-21
3.065619829e-21
3.063604194e-21
3.061607495e-21
3.059629468e-21
3.05766985e-21
3.055728381e-21
3.053804798e-21
3.051898844e-21
3.050010256e-21
3.048138775e-21
3.046284138e-21
3.044446079e-21
3.042624326e-21
3.040818602e-21
3.039028622e-21
3.037254087e-21
3.035494684e-21
3.033750083e-21
3.032019928e-21
3.030303835e-21
3.02860138e-21
3.026912097e-21
3.025235452e-21
3.023570843e-21
3.021917524e-21
3.020274635e-21
3.01864107e-21
3.0170153e-21
3.015395291e-21
3.002242132e-21
2.982938165e-21
2.966121802e-21
2.951749897e-21
2.939680048e-21
2.929806415e-21
2.922049528e-21
2.916351032e-21
2.912669442e-21
2.910976809e-21
2.911256128e-21
2.913499263e-21
2.917705252e-21
2.923878912e-21
2.932029664e-21
2.94217052e-21
2.954317224e-21
2.968487492e-21
2.984700338e-21
3.002975472e-21
3.023332737e-21
3.045791593e-21
3.070370608e-21
3.097086959e-21
3.125955943e-21
3.156990456e-21
3.19020047e-21
3.225592478e-21
3.263168915e-21
3.302927543e-21
3.344860815e-21
3.38895521e-21
3.435190542e-21
3.48353926e-21
3.533965741e-21
3.586425592e-21
3.640864978e-21
3.697219984e-21
3.755416033e-21
3.81536739e-21
3.876976758e-21
3.940134995e-21
4.004720967e-21
4.070601566e-21
4.137631896e-21
4.205655653e-21
4.27450571e-21
4.344004903e-21
4.413967026e-21
4.484198037e-21
4.55449746e-21
4.624659961e-21
4.694477105e-21
4.763739231e-21
4.83223744e-21
4.899765668e-21
4.966122777e-21
5.03111466e-21
5.094556294e-21
5.156273704e-21
5.21610582e-21
5.273906147e-21
5.329544248e-21
5.382907006e-21
5.433899616e-21
5.482446298e-21
5.528490728e-21
5.571996152e-21
5.612945225e-21
5.651339528e-21
5.687198814e-21
5.72055999e-21
5.751475874e-21
5.780013731e-21
5.806253658e-21
5.830286831e-21
5.852213672e-21
5.872141968e-21
5.890184994e-21
5.906459674e-21
5.921084812e-21
5.934179447e-21
5.945861335e-21
5.9562456e-21
5.965443564e-21
5.973561771e-21
5.980701211e-21
5.986956736e-21
5.992416673e-21
5.997162622e-21
6.001269411e-21
6.004805211e-21
6.007831769e-21
6.010404748e-21
6.012574153e-21
6.014384803e-21
6.015876844e-21
6.017086269e-21
6.018045434e-21
6.018783537e-21
6.019327075e-21
6.019700231e-21
6.019925219e-21
6.02002256e-21
6.020011292e-21
6.01990913e-21
6.019732564e-21
6.019496907e-21
6.019216312e-21
6.018903752e-21
6.018570981e-21
6.018228493e-21
6.017885471e-21
6.017549752e-21
6.017227805e-21
6.016924731e-21
6.01664429e-21
6.016388951e-21
6.016159972e-21
6.015957509e-21
6.015780741e-21
6.015628015e-21
6.015497011e-21
6.015384904e-21
6.015288537e-21
6.01520458e-21
6.015129687e-21
6.015060632e-21
6.014994431e-21
6.014928436e-21
6.014860411e-21
6.014788578e-21
6.014711641e-21
6.014628786e-21
6.014539661e-21
6.01444434e-21
6.014343264e-21
6.014237183e-21
6.014127086e-21
6.014014123e-21
6.013899542e-21
6.013784613e-21
6.013670575e-21
6.013558578e-21
6.013449646e-21
6.013344645e-21
6.013244265e-21
6.013149009e-21
6.013059198e-21
6.012974978e-21
6.01289634e-21
6.012823135e-21
6.012755107e-21
6.012691914e-21
6.012633157e-21
6.012578403e-21
6.012527209e-21
6.012479141e-21
6.012433791e-21
6.012390786e-21
6.012349797e-21
6.012310543e-21
6.012272795e-21
6.012236371e-21
6.012201133e-21
6.012166986e-21
6.012133868e-21
6.01210175e-21
6.012070626e-21
6.012040511e-21
6.012011437e-21
6.01198345e-21
6.011956604e-21
6.011930967e-21
6.011906609e-21
6.011883612e-21
6.011862061e-21
6.011842045e-21
6.011823655e-21
6.011806987e-21
6.011792131e-21
6.011779177e-21
6.011768204e-21
6.011759285e-21
6.011752478e-21
6.011747822e-21
6.011745341e-21
6.011745032e-21
6.011746872e-21
6.011750809e-21
6.011756765e-21
6.011764636e-21
6.011774292e-21
6.011785576e-21
6.011798312e-21
6.011812301e-21
6.011827328e-21
6.011843164e-21
6.01185957e-21
6.011876302e-21
6.011893114e-21
6.011909761e-21
6.011926005e-21
6.011941616e-21
6.011956377e-21
6.011970087e-21
6.011982563e-21
6.011993642e-21
6.012003185e-21
6.012011073e-21
6.012017213e-21
6.012021539e-21
6.012024004e-21
6.012024591e-21
6.012023302e-21
6.012020163e-21
6.012015221e-21
6.012008539e-21
6.012000201e-21
6.011990302e-21
6.011978951e-21
6.011966269e-21
6.011952383e-21
6.011937427e-21
6.011921539e-21
6.011904861e-21
6.011887534e-21
6.011869697e-21
6.011851489e-21
6.011833044e-21
6.011814492e-21
6.011795957e-21
6.011777557e-21
6.011759404e-21
6.011741599e-21
6.011724239e-21
6.01170741e-21
6.01169119e-21
6.011675649e-21
6.011660845e-21
6.011646831e-21
6.011633648e-21
6.011621328e-21
6.011609896e-21
6.01159937e-21
6.011589765e-21
6.011581109e-21
6.011573491e-21
6.011567198e-21
6.011563069e-21
)
;

boundaryField
{
    inlet
    {
        type            fixedValue;
        value           uniform 0;
    }
    outlet
    {
        type            zeroGradient;
    }
    wall
    {
        type            empty;
    }
}


// ************************************************************************* //
