/*--------------------------------*- C++ -*----------------------------------*\
  =========                 |
  \\      /  F ield         | OpenFOAM: The Open Source CFD Toolbox
   \\    /   O peration     | Website:  https://openfoam.org
    \\  /    A nd           | Version:  7
     \\/     M anipulation  |
\*---------------------------------------------------------------------------*/
FoamFile
{
    version     2.0;
    format      ascii;
    class       volScalarField;
    location    "0.000558243009";
    object      CH3O2_0;
}
// * * * * * * * * * * * * * * * * * * * * * * * * * * * * * * * * * * * * * //

dimensions      [0 0 0 0 0 0 0];

internalField   nonuniform List<scalar> 
1500
(
1.34697783e-14
5.267317842e-14
1.08677976e-13
1.631802211e-13
2.038692423e-13
2.287534638e-13
2.417041297e-13
2.475775683e-13
2.499380332e-13
2.50789839e-13
2.510689039e-13
2.511526857e-13
2.5117592e-13
2.511819122e-13
2.511833578e-13
2.511836856e-13
2.511837558e-13
2.5118377e-13
2.511837727e-13
2.511837732e-13
2.511837732e-13
2.511837732e-13
2.511837732e-13
2.511837732e-13
2.511837732e-13
2.511837732e-13
2.511837732e-13
2.511837732e-13
2.511837732e-13
2.511837732e-13
2.511837732e-13
2.511837732e-13
2.511837732e-13
2.511837732e-13
2.511837732e-13
2.511837732e-13
2.511837732e-13
2.511837732e-13
2.511837732e-13
2.511837732e-13
2.511837732e-13
2.511837732e-13
2.511837732e-13
2.511837732e-13
2.511837732e-13
2.511837731e-13
2.511837731e-13
2.511837731e-13
2.511837731e-13
2.511837731e-13
2.511837731e-13
2.511837731e-13
2.511837731e-13
2.511837731e-13
2.511837731e-13
2.511837731e-13
2.511837731e-13
2.511837731e-13
2.511837731e-13
2.511837731e-13
2.511837731e-13
2.511837731e-13
2.511837731e-13
2.511837731e-13
2.511837731e-13
2.511837731e-13
2.511837731e-13
2.511837731e-13
2.511837731e-13
2.511837731e-13
2.511837731e-13
2.511837731e-13
2.511837731e-13
2.511837731e-13
2.511837731e-13
2.511837731e-13
2.511837731e-13
2.511837732e-13
2.511837732e-13
2.511837732e-13
2.511837732e-13
2.511837732e-13
2.511837732e-13
2.511837732e-13
2.511837732e-13
2.511837732e-13
2.511837732e-13
2.511837732e-13
2.511837732e-13
2.511837732e-13
2.511837732e-13
2.511837732e-13
2.511837732e-13
2.511837732e-13
2.511837732e-13
2.511837731e-13
2.511837731e-13
2.511837731e-13
2.511837731e-13
2.511837731e-13
2.511837731e-13
2.511837731e-13
2.511837731e-13
2.511837731e-13
2.511837731e-13
2.511837731e-13
2.511837731e-13
2.511837731e-13
2.511837731e-13
2.51183773e-13
2.51183773e-13
2.51183773e-13
2.51183773e-13
2.51183773e-13
2.51183773e-13
2.51183773e-13
2.51183773e-13
2.51183773e-13
2.51183773e-13
2.51183773e-13
2.51183773e-13
2.51183773e-13
2.51183773e-13
2.51183773e-13
2.51183773e-13
2.51183773e-13
2.51183773e-13
2.51183773e-13
2.51183773e-13
2.51183773e-13
2.51183773e-13
2.51183773e-13
2.51183773e-13
2.51183773e-13
2.51183773e-13
2.51183773e-13
2.51183773e-13
2.51183773e-13
2.51183773e-13
2.51183773e-13
2.51183773e-13
2.51183773e-13
2.51183773e-13
2.51183773e-13
2.51183773e-13
2.511837731e-13
2.511837731e-13
2.511837731e-13
2.511837731e-13
2.511837731e-13
2.511837731e-13
2.511837731e-13
2.511837731e-13
2.511837731e-13
2.511837731e-13
2.511837731e-13
2.511837731e-13
2.511837731e-13
2.511837731e-13
2.511837731e-13
2.511837731e-13
2.511837731e-13
2.511837731e-13
2.511837731e-13
2.511837732e-13
2.511837732e-13
2.511837732e-13
2.511837732e-13
2.511837732e-13
2.511837732e-13
2.511837732e-13
2.511837732e-13
2.511837732e-13
2.511837732e-13
2.511837732e-13
2.511837732e-13
2.511837732e-13
2.511837732e-13
2.511837732e-13
2.511837732e-13
2.511837732e-13
2.511837731e-13
2.511837731e-13
2.511837731e-13
2.511837731e-13
2.511837731e-13
2.511837731e-13
2.511837731e-13
2.511837731e-13
2.511837731e-13
2.511837731e-13
2.511837731e-13
2.511837731e-13
2.511837731e-13
2.511837731e-13
2.511837731e-13
2.511837731e-13
2.511837731e-13
2.511837731e-13
2.511837731e-13
2.511837731e-13
2.511837731e-13
2.511837731e-13
2.511837731e-13
2.511837731e-13
2.511837731e-13
2.511837731e-13
2.511837731e-13
2.511837731e-13
2.511837731e-13
2.511837732e-13
2.511837732e-13
2.511837732e-13
2.511837732e-13
2.511837732e-13
2.511837732e-13
2.511837732e-13
2.511837732e-13
2.511837732e-13
2.511837732e-13
2.511837732e-13
2.511837732e-13
2.511837732e-13
2.511837732e-13
2.511837732e-13
2.511837733e-13
2.511837733e-13
2.511837733e-13
2.511837733e-13
2.511837733e-13
2.511837734e-13
2.511837734e-13
2.511837735e-13
2.511837735e-13
2.511837736e-13
2.511837737e-13
2.51183774e-13
2.511837752e-13
2.511837794e-13
2.511837941e-13
2.511838423e-13
2.511839918e-13
2.511844263e-13
2.511856073e-13
2.511885965e-13
2.511955962e-13
2.512106136e-13
2.512396335e-13
2.512884332e-13
2.513537476e-13
2.513783078e-13
2.513851949e-13
2.513923507e-13
2.513997885e-13
2.51407519e-13
2.514155531e-13
2.51423903e-13
2.514325821e-13
2.514416051e-13
2.514509874e-13
2.514607454e-13
2.514708964e-13
2.514814584e-13
2.514924505e-13
2.515038925e-13
2.515158056e-13
2.515282119e-13
2.515411346e-13
2.515545984e-13
2.515686292e-13
2.515832542e-13
2.515985023e-13
2.516144037e-13
2.516309905e-13
2.516482965e-13
2.516663572e-13
2.516852102e-13
2.517048951e-13
2.517254537e-13
2.517469303e-13
2.517693712e-13
2.517928258e-13
2.518173458e-13
2.518429861e-13
2.518698044e-13
2.518978617e-13
2.519272224e-13
2.519579546e-13
2.519901298e-13
2.52023824e-13
2.52059117e-13
2.520960931e-13
2.521348414e-13
2.521754558e-13
2.522180355e-13
2.522626849e-13
2.523095145e-13
2.523586406e-13
2.524101859e-13
2.524642797e-13
2.525210587e-13
2.525806665e-13
2.526432548e-13
2.527089834e-13
2.527780205e-13
2.528505436e-13
2.529267393e-13
2.530068043e-13
2.530909456e-13
2.531793811e-13
2.532723401e-13
2.533700636e-13
2.534728055e-13
2.535808324e-13
2.536944245e-13
2.538138767e-13
2.539394983e-13
2.540716144e-13
2.542105664e-13
2.543567125e-13
2.545104287e-13
2.546721092e-13
2.548421677e-13
2.550210376e-13
2.552091733e-13
2.554070508e-13
2.556151685e-13
2.558340482e-13
2.560642361e-13
2.563063035e-13
2.565608478e-13
2.568284938e-13
2.571098941e-13
2.574057305e-13
2.577167152e-13
2.580435914e-13
2.583871344e-13
2.587481532e-13
2.591274911e-13
2.59526027e-13
2.599446764e-13
2.603843928e-13
2.608461686e-13
2.613310364e-13
2.618400701e-13
2.623743864e-13
2.629351452e-13
2.635235519e-13
2.641408576e-13
2.647883608e-13
2.654674087e-13
2.66179398e-13
2.669257763e-13
2.677080435e-13
2.685277525e-13
2.693865107e-13
2.702859811e-13
2.712278832e-13
2.722139945e-13
2.732461514e-13
2.743262499e-13
2.754562473e-13
2.766381627e-13
2.778740781e-13
2.791661395e-13
2.805165575e-13
2.819276082e-13
2.834016343e-13
2.849410454e-13
2.865483191e-13
2.882260012e-13
2.899767069e-13
2.918031205e-13
2.937079965e-13
2.956941599e-13
2.977645062e-13
2.999220017e-13
3.021696841e-13
3.04510662e-13
3.069481151e-13
3.094852944e-13
3.121255215e-13
3.148721888e-13
3.177287588e-13
3.206987639e-13
3.237858056e-13
3.269935541e-13
3.303257475e-13
3.337861905e-13
3.373787544e-13
3.411073752e-13
3.449760526e-13
3.489888492e-13
3.531498886e-13
3.574633544e-13
3.619334881e-13
3.665645882e-13
3.713610075e-13
3.763271523e-13
3.814674795e-13
3.867864952e-13
3.922887523e-13
3.979788484e-13
4.038614235e-13
4.099411575e-13
4.162227681e-13
4.227110078e-13
4.294106619e-13
4.363265455e-13
4.43463501e-13
4.508263952e-13
4.58420117e-13
4.662495741e-13
4.743196906e-13
4.826354042e-13
4.912016632e-13
5.000234239e-13
5.091056478e-13
5.18453299e-13
5.280713414e-13
5.379647359e-13
5.481384385e-13
5.585973972e-13
5.693465498e-13
5.80390822e-13
5.917351247e-13
6.033843525e-13
6.153433816e-13
6.276170682e-13
6.402102471e-13
6.531277303e-13
6.66374306e-13
6.799547376e-13
6.938737636e-13
7.081360968e-13
7.227464245e-13
7.377094088e-13
7.530296871e-13
7.687118733e-13
7.847605589e-13
8.011803149e-13
8.179756937e-13
8.351512318e-13
8.527114529e-13
8.706608711e-13
8.89003995e-13
9.07745332e-13
9.268893934e-13
9.464406999e-13
9.664037878e-13
9.867832154e-13
1.00758357e-12
1.028809478e-12
1.050465609e-12
1.07255669e-12
1.095087513e-12
1.118062944e-12
1.141487938e-12
1.165367548e-12
1.189706941e-12
1.214511409e-12
1.239786385e-12
1.265537457e-12
1.291770386e-12
1.318491124e-12
1.345705829e-12
1.373420885e-12
1.401642925e-12
1.430378847e-12
1.459635841e-12
1.489421407e-12
1.519743383e-12
1.550609968e-12
1.58202975e-12
1.61401173e-12
1.646565353e-12
1.679700537e-12
1.713427705e-12
1.747757812e-12
1.782702385e-12
1.818273553e-12
1.854484082e-12
1.891347415e-12
1.928877708e-12
1.967089871e-12
2.005999608e-12
2.04562346e-12
2.085978847e-12
2.127084117e-12
2.168958588e-12
2.211622601e-12
2.255097566e-12
2.299406017e-12
2.34457166e-12
2.390619434e-12
2.437575564e-12
2.485467618e-12
2.534324571e-12
2.584176865e-12
2.635056472e-12
2.686996961e-12
2.740033567e-12
2.794203259e-12
2.849544816e-12
2.906098898e-12
2.963908124e-12
3.023017155e-12
3.083472771e-12
3.145323962e-12
3.208622012e-12
3.273420591e-12
3.339775855e-12
3.407746547e-12
3.477394068e-12
3.548782643e-12
3.621979391e-12
3.697054419e-12
3.774080969e-12
3.853135539e-12
3.934298003e-12
4.017651761e-12
4.103283866e-12
4.191285179e-12
4.281750514e-12
4.374778798e-12
4.470473236e-12
4.568941489e-12
4.670295864e-12
4.774653476e-12
4.882136514e-12
4.992872447e-12
5.106994272e-12
5.224640758e-12
5.345956761e-12
5.47109354e-12
5.600209042e-12
5.733468265e-12
5.871043663e-12
6.01311558e-12
6.159872726e-12
6.311512711e-12
6.468242621e-12
6.630279677e-12
6.79785196e-12
6.971199233e-12
7.150573861e-12
7.336241854e-12
7.528484041e-12
7.727597416e-12
7.933896661e-12
8.147715886e-12
8.369410623e-12
8.599360113e-12
8.83796993e-12
9.085675001e-12
9.342943091e-12
9.610278827e-12
9.888228341e-12
1.017738465e-11
1.047839391e-11
1.07919626e-11
1.111886597e-11
1.145995776e-11
1.181618154e-11
1.218858391e-11
1.257832984e-11
1.298672053e-11
1.341521428e-11
1.386545074e-11
1.43392792e-11
1.483879164e-11
1.536636119e-11
1.592468714e-11
1.651684735e-11
1.714635946e-11
1.781725247e-11
1.853415015e-11
1.93023686e-11
2.012803011e-11
2.10181962e-11
2.198102309e-11
2.30259432e-11
2.416387737e-11
2.540748267e-11
2.677144212e-11
2.827280309e-11
2.993137279e-11
3.177018046e-11
3.381601747e-11
3.610006839e-11
3.865864866e-11
4.153406643e-11
4.477562992e-11
4.844082451e-11
5.259668843e-11
5.732142032e-11
6.270625792e-11
6.885767353e-11
7.589993955e-11
8.397812667e-11
9.326160734e-11
1.0394815e-10
1.162687033e-10
1.304929866e-10
1.469360232e-10
1.659657739e-10
1.880120573e-10
2.135769734e-10
2.432470835e-10
2.77707642e-10
3.17759227e-10
3.643371724e-10
4.185342739e-10
4.816273216e-10
5.551081026e-10
6.407196282e-10
7.40498466e-10
8.568242061e-10
9.924772662e-10
1.15070644e-09
1.335307839e-09
1.550717142e-09
1.802117415e-09
2.095565117e-09
2.438137393e-09
2.838104223e-09
3.305129679e-09
3.850507202e-09
4.48743468e-09
5.231336106e-09
6.10023774e-09
7.115208066e-09
8.300872456e-09
9.686015313e-09
1.13042847e-08
1.319501709e-08
1.540420287e-08
1.798561705e-08
2.10021436e-08
2.45273272e-08
2.864719202e-08
3.346237412e-08
3.909062254e-08
4.566973392e-08
5.336099713e-08
6.235323813e-08
7.286757164e-08
8.516298513e-08
9.954290329e-08
1.163629076e-07
1.360398162e-07
1.590623658e-07
1.860037778e-07
2.175365396e-07
2.544497845e-07
2.976697157e-07
3.482835831e-07
4.075677957e-07
4.770208217e-07
5.58401603e-07
6.537742738e-07
7.655600224e-07
8.965969625e-07
1.050208862e-06
1.230283511e-06
1.441361356e-06
1.688734798e-06
1.978558181e-06
2.317967996e-06
2.715212212e-06
3.179786846e-06
3.722577021e-06
4.355998791e-06
5.094137144e-06
5.952874726e-06
6.950005387e-06
8.105326421e-06
9.440703757e-06
1.098010527e-05
1.27495988e-05
1.477731342e-05
1.709336473e-05
1.972974719e-05
2.272019871e-05
2.610004441e-05
2.990602744e-05
3.417613535e-05
3.894942964e-05
4.426588379e-05
5.016623222e-05
5.669181898e-05
6.388442646e-05
7.178602556e-05
8.043833536e-05
8.988197738e-05
0.0001001548439
0.0001112890552
0.0001233006838
0.0001362007112
0.0001499222442
0.0001644328581
0.000179511024
0.0001947852693
0.0002093332231
0.0002224276927
0.000232808549
0.000238917637
0.0002390871356
0.0002319173111
0.0002169514323
0.0001950878766
0.0001687367632
0.0001410202446
0.0001146681359
9.112009051e-05
7.164200989e-05
5.588971492e-05
4.341188776e-05
3.35577654e-05
2.594508611e-05
2.002379408e-05
1.542663011e-05
1.189317207e-05
9.176859395e-06
7.084332014e-06
5.469092902e-06
4.220355433e-06
3.254396216e-06
2.507339774e-06
1.928697869e-06
1.483090328e-06
1.13822789e-06
8.734103538e-07
6.695803528e-07
5.129284552e-07
3.927288317e-07
3.00670263e-07
2.299574136e-07
1.755516203e-07
1.340346547e-07
1.023892873e-07
7.82758222e-08
5.989825737e-08
4.589349957e-08
3.521101558e-08
2.705013757e-08
2.081391649e-08
1.608825456e-08
1.246056671e-08
9.655286368e-09
7.49932995e-09
5.83846585e-09
4.555928623e-09
3.563232022e-09
2.793153783e-09
2.194668608e-09
1.728266229e-09
1.364145865e-09
1.079270792e-09
8.559142694e-10
6.804094061e-10
5.42199806e-10
4.331166378e-10
3.468269441e-10
2.78411853e-10
2.24043564e-10
1.807375757e-10
1.461623332e-10
1.184927481e-10
9.629729593e-11
7.845084976e-11
6.406726977e-11
5.24471803e-11
4.303744188e-11
3.539964263e-11
2.918555746e-11
2.411799876e-11
1.997584641e-11
1.658232271e-11
1.37957915e-11
1.150252399e-11
9.610999978e-12
8.047409724e-12
6.75209654e-12
5.676737743e-12
4.782106267e-12
4.036289756e-12
3.413270776e-12
2.891792628e-12
2.454451466e-12
2.086968089e-12
1.77760266e-12
1.516683329e-12
1.296225835e-12
1.109625895e-12
9.514099426e-13
8.170327601e-13
7.027128291e-13
6.052981198e-13
5.221564669e-13
4.510858552e-13
3.902408554e-13
3.380721878e-13
2.932769759e-13
2.547577231e-13
2.215884198e-13
1.92986491e-13
1.682895356e-13
1.469360058e-13
1.2844913e-13
1.124235133e-13
9.851394937e-14
8.642606479e-14
7.590848199e-14
6.674624435e-14
5.875529148e-14
5.177780985e-14
4.567831419e-14
4.034033989e-14
3.566364724e-14
3.156185478e-14
2.796043322e-14
2.479500269e-14
2.200988539e-14
1.955687389e-14
1.739418146e-14
1.548554647e-14
1.379946723e-14
1.230854754e-14
1.098893622e-14
9.819846534e-15
8.783143736e-15
7.862990519e-15
7.045542053e-15
6.31868328e-15
5.671802417e-15
5.09559544e-15
4.581897139e-15
4.123534991e-15
3.714202619e-15
3.348350121e-15
3.021088909e-15
2.728109065e-15
2.465607489e-15
2.23022539e-15
2.018993819e-15
1.829286203e-15
1.658776912e-15
1.505405075e-15
1.367342947e-15
1.242968227e-15
1.130839822e-15
1.029676592e-15
9.383387158e-16
8.558113193e-16
7.811900939e-16
7.13668646e-16
6.525273621e-16
5.971235992e-16
5.468830365e-16
5.012920445e-16
4.598909466e-16
4.222680642e-16
3.880544499e-16
3.569192265e-16
3.285654582e-16
3.02726491e-16
2.791627065e-16
2.576586402e-16
2.380204216e-16
2.200734986e-16
2.036606136e-16
1.886400009e-16
1.74883782e-16
1.622765344e-16
1.507140151e-16
1.401020218e-16
1.303553746e-16
1.213970071e-16
1.131571527e-16
1.055726168e-16
9.858612488e-17
9.214573859e-17
8.620433194e-17
8.071912151e-17
7.565124501e-17
7.096538228e-17
6.662941491e-17
6.261412022e-17
5.889289582e-17
5.544151161e-17
5.223788649e-17
4.926188703e-17
4.64951459e-17
4.392089815e-17
4.152383336e-17
3.928996203e-17
3.720649503e-17
3.526173433e-17
3.344497441e-17
3.174641287e-17
3.015706951e-17
2.86687131e-17
2.72737949e-17
2.596538842e-17
2.47371348e-17
2.358319311e-17
2.249819543e-17
2.147720575e-17
2.051568287e-17
1.960944652e-17
1.875464657e-17
1.794773504e-17
1.718544056e-17
1.646474507e-17
1.578286274e-17
1.513722057e-17
1.45254408e-17
1.394532486e-17
1.33948386e-17
1.287209897e-17
1.237536175e-17
1.190301031e-17
1.145354539e-17
1.10255758e-17
1.061780976e-17
1.022904707e-17
9.858171919e-18
9.504146329e-18
9.166004116e-18
8.842845294e-18
8.533831051e-18
8.238179055e-18
7.955159226e-18
7.684089726e-18
7.424333355e-18
7.175294298e-18
6.93641504e-18
6.707173533e-18
6.487080613e-18
6.275677638e-18
6.072534272e-18
5.877246483e-18
5.689434671e-18
5.508741951e-18
5.334832556e-18
5.167390386e-18
5.006117654e-18
4.850733614e-18
4.700973447e-18
4.556587171e-18
4.417338633e-18
4.283004639e-18
4.153374065e-18
4.028247091e-18
3.907434489e-18
3.79075692e-18
3.678044321e-18
3.569135331e-18
3.463876733e-18
3.362122992e-18
3.263735732e-18
3.168583357e-18
3.076540607e-18
2.987488215e-18
2.901312531e-18
2.817905211e-18
2.737162913e-18
2.658987012e-18
2.583283321e-18
2.509961877e-18
2.438936667e-18
2.370125447e-18
2.303449531e-18
2.238833593e-18
2.176205499e-18
2.115496135e-18
2.056639246e-18
1.999571309e-18
1.944231376e-18
1.890560959e-18
1.838503906e-18
1.788006279e-18
1.739016261e-18
1.691484035e-18
1.645361701e-18
1.600603188e-18
1.557164165e-18
1.51500198e-18
1.474075551e-18
1.434345316e-18
1.39577316e-18
1.358322361e-18
1.321957515e-18
1.286644481e-18
1.252350336e-18
1.21904332e-18
1.186692797e-18
1.15526919e-18
1.124743944e-18
1.095089486e-18
1.066279189e-18
1.038287327e-18
1.011089046e-18
9.8466033e-19
9.589779545e-19
9.340194781e-19
9.097631953e-19
8.861881155e-19
8.632739387e-19
8.410010161e-19
8.193503492e-19
7.983035412e-19
7.778427924e-19
7.5795087e-19
7.386110876e-19
7.198072893e-19
7.015238358e-19
6.837455706e-19
6.664578176e-19
6.496463571e-19
6.332974107e-19
6.173976308e-19
6.019340772e-19
5.868942091e-19
5.722658702e-19
5.580372786e-19
5.441970097e-19
5.307339868e-19
5.176374677e-19
5.048970374e-19
4.925025949e-19
4.804443349e-19
4.687127566e-19
4.572986386e-19
4.461930347e-19
4.353872617e-19
4.248729004e-19
4.146417704e-19
4.046859445e-19
3.94997723e-19
3.855696349e-19
3.763944263e-19
3.674650554e-19
3.587746828e-19
3.503166763e-19
3.420845915e-19
3.340721727e-19
3.262733475e-19
3.186822107e-19
3.112930362e-19
3.041002578e-19
2.970984725e-19
2.902824325e-19
2.836470385e-19
2.771873396e-19
2.708985244e-19
2.647759148e-19
2.588149714e-19
2.53011283e-19
2.47360562e-19
2.418586439e-19
2.365014811e-19
2.312851395e-19
2.262057958e-19
2.212597364e-19
2.164433482e-19
2.117531263e-19
2.071856574e-19
2.027376307e-19
1.984058226e-19
1.941871007e-19
1.900784177e-19
1.860768137e-19
1.821794137e-19
1.783834199e-19
1.746861135e-19
1.710848486e-19
1.675770537e-19
1.641602282e-19
1.608319412e-19
1.5758983e-19
1.544315948e-19
1.513549978e-19
1.483578666e-19
1.454380863e-19
1.425936029e-19
1.39822416e-19
1.371225779e-19
1.344921976e-19
1.319294349e-19
1.294324993e-19
1.269996488e-19
1.246291902e-19
1.223194773e-19
1.20068906e-19
1.178759185e-19
1.157389976e-19
1.136566678e-19
1.116274918e-19
1.096500699e-19
1.077230451e-19
1.058450943e-19
1.040149311e-19
1.02231303e-19
1.004929916e-19
9.879881005e-20
9.714760511e-20
9.553825509e-20
9.396966502e-20
9.2440773e-20
9.095054396e-20
8.949796972e-20
8.808207143e-20
8.670189324e-20
8.535650725e-20
8.404500893e-20
8.276652044e-20
8.152018558e-20
8.030516864e-20
7.912065965e-20
7.796586753e-20
7.684002361e-20
7.574238063e-20
7.467220969e-20
7.362880039e-20
7.261146297e-20
7.161952509e-20
7.065233265e-20
6.970924778e-20
6.878964959e-20
6.789293506e-20
6.701851617e-20
6.616582023e-20
6.533428994e-20
6.452338154e-20
6.373256684e-20
6.296133014e-20
6.220917288e-20
6.147560435e-20
6.076015037e-20
6.006234811e-20
5.938174647e-20
5.871790637e-20
5.807039933e-20
5.743881019e-20
5.682273452e-20
5.622177676e-20
5.563555083e-20
5.506368344e-20
5.450581076e-20
5.396157567e-20
5.343063322e-20
5.29126459e-20
5.240728626e-20
5.191423266e-20
5.14331739e-20
5.09638073e-20
5.050583823e-20
5.005897756e-20
4.962294465e-20
4.919746615e-20
4.878227646e-20
4.837711661e-20
4.798173389e-20
4.759588161e-20
4.721932032e-20
4.685181512e-20
4.649313949e-20
4.614307208e-20
4.580139715e-20
4.54679042e-20
4.514238797e-20
4.48246478e-20
4.451448995e-20
4.421172539e-20
4.39161685e-20
4.362764011e-20
4.334596276e-20
4.307096601e-20
4.280248351e-20
4.254035256e-20
4.228441562e-20
4.203451881e-20
4.179051146e-20
4.155224676e-20
4.131958214e-20
4.109237798e-20
4.087049877e-20
4.065381308e-20
4.044219188e-20
4.023550899e-20
4.00336428e-20
3.98364732e-20
3.964388435e-20
3.945576205e-20
3.927199653e-20
3.909248006e-20
3.891710744e-20
3.874577626e-20
3.857838628e-20
3.841484025e-20
3.825504311e-20
3.809890189e-20
3.794632749e-20
3.779723064e-20
3.765152472e-20
3.750912659e-20
3.736995419e-20
3.723392699e-20
3.710096718e-20
3.697099933e-20
3.684394911e-20
3.671974325e-20
3.659831159e-20
3.647958486e-20
3.636349519e-20
3.624997587e-20
3.613896287e-20
3.603039215e-20
3.592420249e-20
3.582033297e-20
3.571872447e-20
3.561931967e-20
3.552206156e-20
3.542689539e-20
3.533376594e-20
3.524262023e-20
3.515340603e-20
3.506607165e-20
3.498056711e-20
3.489684386e-20
3.481485332e-20
3.473454787e-20
3.465588073e-20
3.457880581e-20
3.450327922e-20
3.4429257e-20
3.435669591e-20
3.428555391e-20
3.421578951e-20
3.414736316e-20
3.408023557e-20
3.401436829e-20
3.394972363e-20
3.388626479e-20
3.382395416e-20
3.376275546e-20
3.370262935e-20
3.364353455e-20
3.317062884e-20
3.262593548e-20
3.222044125e-20
3.191655332e-20
3.168912396e-20
3.152093113e-20
3.139988477e-20
3.131739612e-20
3.126736019e-20
3.124541435e-20
3.124844694e-20
3.127425185e-20
3.132126102e-20
3.138837019e-20
3.147480206e-20
3.158001351e-20
3.1703629e-20
3.184539015e-20
3.20051142e-20
3.218267447e-20
3.237797466e-20
3.259093782e-20
3.282149465e-20
3.30695722e-20
3.333508549e-20
3.361793499e-20
3.391799602e-20
3.423511618e-20
3.45691087e-20
3.491974748e-20
3.528676142e-20
3.566983029e-20
3.606857858e-20
3.648257098e-20
3.691130788e-20
3.735422017e-20
3.781066645e-20
3.827992891e-20
3.876121088e-20
3.92536352e-20
3.975624366e-20
4.026799721e-20
4.078777819e-20
4.131439302e-20
4.18465771e-20
4.238300068e-20
4.292227661e-20
4.346296918e-20
4.400360364e-20
4.454267896e-20
4.507867862e-20
4.561008519e-20
4.613539293e-20
4.66531228e-20
4.716183609e-20
4.766014854e-20
4.814674363e-20
4.862038563e-20
4.907993182e-20
4.952434216e-20
4.995269014e-20
5.03641691e-20
5.075810005e-20
5.113393491e-20
5.149126017e-20
5.182979744e-20
5.214940266e-20
5.245006332e-20
5.27318941e-20
5.299513072e-20
5.324012225e-20
5.346732212e-20
5.367727777e-20
5.387061946e-20
5.404804819e-20
5.421032296e-20
5.435824816e-20
5.449266042e-20
5.461441593e-20
5.472437838e-20
5.482340733e-20
5.491234779e-20
5.499202071e-20
5.506321485e-20
5.512667996e-20
5.518312157e-20
5.523319706e-20
5.52775133e-20
5.531662567e-20
5.535103837e-20
5.5381206e-20
5.5407536e-20
5.543039213e-20
5.545009833e-20
5.546694334e-20
5.548118522e-20
5.549305617e-20
5.550276705e-20
5.551051166e-20
5.551647053e-20
5.552081419e-20
5.552370582e-20
5.552530318e-20
5.552575995e-20
5.552522635e-20
5.552384919e-20
5.552177137e-20
5.551913105e-20
5.551606036e-20
5.551268403e-20
5.550911789e-20
5.550546742e-20
5.55018264e-20
5.549827583e-20
5.549488315e-20
5.549170175e-20
5.548877096e-20
5.548611632e-20
5.548375033e-20
5.548167347e-20
5.547987557e-20
5.54783374e-20
5.547703242e-20
5.547592866e-20
5.547499063e-20
5.547418111e-20
5.547346289e-20
5.547280031e-20
5.547216062e-20
5.547151497e-20
5.547083927e-20
5.547011465e-20
5.546932769e-20
5.546847041e-20
5.546753994e-20
5.546653812e-20
5.546547082e-20
5.546434722e-20
5.546317903e-20
5.546197962e-20
5.546076325e-20
5.545954431e-20
5.545833663e-20
5.545715297e-20
5.545600452e-20
5.545490065e-20
5.545384865e-20
5.545285374e-20
5.545191907e-20
5.545104584e-20
5.545023354e-20
5.544948019e-20
5.544878264e-20
5.544813686e-20
5.544753825e-20
5.544698191e-20
5.544646289e-20
5.544597639e-20
5.544551794e-20
5.544508352e-20
5.544466962e-20
5.544427327e-20
5.544389207e-20
5.544352416e-20
5.544316814e-20
5.544282308e-20
5.54424884e-20
5.544216382e-20
5.544184933e-20
5.544154512e-20
5.544125153e-20
5.544096905e-20
5.544069824e-20
5.544043978e-20
5.544019443e-20
5.5439963e-20
5.543974637e-20
5.543954546e-20
5.543936126e-20
5.543919473e-20
5.543904688e-20
5.543891863e-20
5.543881089e-20
5.543872443e-20
5.543865991e-20
5.54386178e-20
5.543859839e-20
5.543860172e-20
5.543862759e-20
5.543867552e-20
5.543874474e-20
5.543883423e-20
5.543894266e-20
5.543906846e-20
5.543920982e-20
5.543936472e-20
5.543953095e-20
5.543970617e-20
5.543988793e-20
5.54400737e-20
5.544026097e-20
5.54404472e-20
5.544062994e-20
5.544080682e-20
5.54409756e-20
5.544113419e-20
5.544128068e-20
5.544141339e-20
5.544153083e-20
5.544163177e-20
5.54417152e-20
5.544178039e-20
5.544182682e-20
5.544185423e-20
5.544186261e-20
5.544185213e-20
5.544182319e-20
5.544177638e-20
5.544171246e-20
5.544163232e-20
5.544153698e-20
5.544142757e-20
5.544130532e-20
5.544117148e-20
5.544102737e-20
5.544087434e-20
5.544071372e-20
5.544054686e-20
5.544037506e-20
5.544019963e-20
5.544002178e-20
5.543984271e-20
5.543966355e-20
5.543948536e-20
5.543930913e-20
5.543913578e-20
5.543896615e-20
5.543880098e-20
5.543864096e-20
5.543848668e-20
5.543833863e-20
5.543819723e-20
5.543806283e-20
5.543793569e-20
5.543781601e-20
5.543770396e-20
5.543759983e-20
5.543750445e-20
5.543742048e-20
5.543735673e-20
)
;

boundaryField
{
    inlet
    {
        type            fixedValue;
        value           uniform 0;
    }
    outlet
    {
        type            zeroGradient;
    }
    wall
    {
        type            empty;
    }
}


// ************************************************************************* //
