/*--------------------------------*- C++ -*----------------------------------*\
  =========                 |
  \\      /  F ield         | OpenFOAM: The Open Source CFD Toolbox
   \\    /   O peration     | Website:  https://openfoam.org
    \\  /    A nd           | Version:  7
     \\/     M anipulation  |
\*---------------------------------------------------------------------------*/
FoamFile
{
    version     2.0;
    format      ascii;
    class       volScalarField;
    location    "0.000558243009";
    object      CH3OH;
}
// * * * * * * * * * * * * * * * * * * * * * * * * * * * * * * * * * * * * * //

dimensions      [0 0 0 0 0 0 0];

internalField   nonuniform List<scalar> 
1500
(
8.464614188e-14
3.310599002e-13
6.831641536e-13
1.025905256e-12
1.281842069e-12
1.438402519e-12
1.51990164e-12
1.556872301e-12
1.571733963e-12
1.577098304e-12
1.578856177e-12
1.579384062e-12
1.579530491e-12
1.579568265e-12
1.579577381e-12
1.579579449e-12
1.579579892e-12
1.579579982e-12
1.57958e-12
1.579580003e-12
1.579580003e-12
1.579580003e-12
1.579580003e-12
1.579580003e-12
1.579580003e-12
1.579580003e-12
1.579580003e-12
1.579580003e-12
1.579580003e-12
1.579580003e-12
1.579580003e-12
1.579580003e-12
1.579580003e-12
1.579580003e-12
1.579580003e-12
1.579580003e-12
1.579580003e-12
1.579580003e-12
1.579580003e-12
1.579580003e-12
1.579580003e-12
1.579580003e-12
1.579580003e-12
1.579580003e-12
1.579580003e-12
1.579580003e-12
1.579580003e-12
1.579580003e-12
1.579580003e-12
1.579580003e-12
1.579580003e-12
1.579580003e-12
1.579580003e-12
1.579580003e-12
1.579580003e-12
1.579580003e-12
1.579580003e-12
1.579580003e-12
1.579580003e-12
1.579580003e-12
1.579580003e-12
1.579580003e-12
1.579580003e-12
1.579580003e-12
1.579580003e-12
1.579580003e-12
1.579580003e-12
1.579580003e-12
1.579580003e-12
1.579580003e-12
1.579580003e-12
1.579580003e-12
1.579580003e-12
1.579580003e-12
1.579580003e-12
1.579580003e-12
1.579580003e-12
1.579580003e-12
1.579580003e-12
1.579580003e-12
1.579580003e-12
1.579580003e-12
1.579580003e-12
1.579580003e-12
1.579580003e-12
1.579580003e-12
1.579580003e-12
1.579580003e-12
1.579580003e-12
1.579580003e-12
1.579580003e-12
1.579580003e-12
1.579580003e-12
1.579580003e-12
1.579580003e-12
1.579580003e-12
1.579580003e-12
1.579580003e-12
1.579580003e-12
1.579580003e-12
1.579580003e-12
1.579580003e-12
1.579580003e-12
1.579580003e-12
1.579580003e-12
1.579580003e-12
1.579580003e-12
1.579580003e-12
1.579580003e-12
1.579580003e-12
1.579580003e-12
1.579580003e-12
1.579580003e-12
1.579580003e-12
1.579580003e-12
1.579580003e-12
1.579580003e-12
1.579580003e-12
1.579580003e-12
1.579580003e-12
1.579580003e-12
1.579580003e-12
1.579580003e-12
1.579580003e-12
1.579580003e-12
1.579580003e-12
1.579580003e-12
1.579580003e-12
1.579580003e-12
1.579580003e-12
1.579580003e-12
1.579580003e-12
1.579580003e-12
1.579580003e-12
1.579580003e-12
1.579580003e-12
1.579580003e-12
1.579580003e-12
1.579580003e-12
1.579580003e-12
1.579580003e-12
1.579580003e-12
1.579580003e-12
1.579580003e-12
1.579580003e-12
1.579580003e-12
1.579580003e-12
1.579580003e-12
1.579580003e-12
1.579580003e-12
1.579580003e-12
1.579580003e-12
1.579580003e-12
1.579580003e-12
1.579580003e-12
1.579580003e-12
1.579580003e-12
1.579580003e-12
1.579580003e-12
1.579580003e-12
1.579580003e-12
1.579580003e-12
1.579580003e-12
1.579580003e-12
1.579580003e-12
1.579580003e-12
1.579580003e-12
1.579580003e-12
1.579580003e-12
1.579580003e-12
1.579580003e-12
1.579580003e-12
1.579580003e-12
1.579580003e-12
1.579580003e-12
1.579580003e-12
1.579580003e-12
1.579580003e-12
1.579580003e-12
1.579580003e-12
1.579580003e-12
1.579580003e-12
1.579580003e-12
1.579580003e-12
1.579580003e-12
1.579580003e-12
1.579580003e-12
1.579580003e-12
1.579580003e-12
1.579580003e-12
1.579580003e-12
1.579580003e-12
1.579580003e-12
1.579580003e-12
1.579580003e-12
1.579580003e-12
1.579580003e-12
1.579580003e-12
1.579580003e-12
1.579580003e-12
1.579580003e-12
1.579580003e-12
1.579580003e-12
1.579580003e-12
1.579580003e-12
1.579580003e-12
1.579580003e-12
1.579580003e-12
1.579580003e-12
1.579580003e-12
1.579580003e-12
1.579580003e-12
1.579580003e-12
1.579580003e-12
1.579580003e-12
1.579580003e-12
1.579580003e-12
1.579580003e-12
1.579580003e-12
1.579580003e-12
1.579580003e-12
1.579580003e-12
1.579580003e-12
1.579580003e-12
1.579580003e-12
1.579580003e-12
1.579580003e-12
1.579580003e-12
1.579580003e-12
1.579580003e-12
1.579580003e-12
1.579580003e-12
1.579580003e-12
1.579580003e-12
1.579580004e-12
1.579580004e-12
1.579580006e-12
1.579580012e-12
1.579580036e-12
1.579580121e-12
1.579580399e-12
1.57958126e-12
1.579583761e-12
1.57959056e-12
1.579607767e-12
1.579648057e-12
1.57973449e-12
1.579901504e-12
1.580182343e-12
1.580558209e-12
1.580699522e-12
1.580739178e-12
1.580780361e-12
1.58082316e-12
1.580867641e-12
1.58091387e-12
1.580961918e-12
1.58101186e-12
1.581063782e-12
1.581117771e-12
1.581173921e-12
1.581232333e-12
1.581293109e-12
1.581356359e-12
1.581422199e-12
1.581490748e-12
1.581562135e-12
1.581636493e-12
1.581713964e-12
1.581794697e-12
1.581878849e-12
1.581966585e-12
1.58205808e-12
1.582153518e-12
1.582253093e-12
1.58235701e-12
1.582465485e-12
1.582578746e-12
1.582697033e-12
1.582820601e-12
1.582949717e-12
1.583084663e-12
1.583225739e-12
1.583373259e-12
1.583527555e-12
1.583688979e-12
1.583857901e-12
1.584034712e-12
1.584219824e-12
1.584413673e-12
1.58461672e-12
1.584829448e-12
1.58505237e-12
1.585286026e-12
1.585530987e-12
1.585787854e-12
1.586057261e-12
1.586339877e-12
1.58663641e-12
1.586947601e-12
1.587274238e-12
1.587617146e-12
1.587977198e-12
1.588355313e-12
1.588752459e-12
1.589169655e-12
1.589607977e-12
1.590068555e-12
1.590552579e-12
1.591061303e-12
1.591596046e-12
1.592158194e-12
1.592749208e-12
1.59337062e-12
1.594024044e-12
1.594711173e-12
1.595433789e-12
1.596193762e-12
1.596993054e-12
1.597833726e-12
1.598717941e-12
1.599647967e-12
1.600626182e-12
1.601655082e-12
1.602737278e-12
1.60387551e-12
1.605072644e-12
1.606331682e-12
1.607655766e-12
1.609048182e-12
1.610512368e-12
1.612051917e-12
1.613670583e-12
1.61537229e-12
1.617161133e-12
1.619041388e-12
1.621017517e-12
1.623094173e-12
1.625276207e-12
1.627568676e-12
1.629976848e-12
1.632506207e-12
1.635162463e-12
1.637951558e-12
1.64087967e-12
1.643953222e-12
1.647178892e-12
1.650563611e-12
1.654114579e-12
1.657839269e-12
1.66174543e-12
1.6658411e-12
1.670134607e-12
1.674634583e-12
1.679349962e-12
1.684289994e-12
1.689464248e-12
1.69488262e-12
1.700555336e-12
1.706492963e-12
1.712706414e-12
1.71920695e-12
1.726006191e-12
1.733116118e-12
1.740549081e-12
1.7483178e-12
1.756435375e-12
1.764915286e-12
1.773771401e-12
1.783017979e-12
1.79266967e-12
1.802741523e-12
1.813248989e-12
1.824207919e-12
1.835634571e-12
1.847545608e-12
1.859958103e-12
1.872889536e-12
1.886357799e-12
1.900381192e-12
1.914978424e-12
1.93016861e-12
1.945971275e-12
1.962406344e-12
1.979494147e-12
1.99725541e-12
2.015711254e-12
2.03488319e-12
2.054793115e-12
2.075463304e-12
2.096916406e-12
2.119175438e-12
2.142263774e-12
2.166205143e-12
2.191023614e-12
2.216743591e-12
2.243389802e-12
2.27098729e-12
2.299561399e-12
2.329137769e-12
2.359742314e-12
2.391401222e-12
2.42414093e-12
2.457988119e-12
2.492969698e-12
2.529112786e-12
2.566444704e-12
2.604992953e-12
2.644785204e-12
2.685849278e-12
2.728213135e-12
2.771904852e-12
2.816952611e-12
2.863384681e-12
2.9112294e-12
2.960515162e-12
3.011270397e-12
3.063523555e-12
3.117303092e-12
3.172637449e-12
3.229555044e-12
3.288084248e-12
3.348253374e-12
3.410090663e-12
3.47362427e-12
3.538882246e-12
3.605892531e-12
3.674682939e-12
3.74528115e-12
3.817714695e-12
3.89201095e-12
3.96819713e-12
4.046300279e-12
4.126347265e-12
4.208364781e-12
4.292379335e-12
4.378417256e-12
4.466504694e-12
4.556667619e-12
4.648931831e-12
4.743322964e-12
4.839866497e-12
4.938587762e-12
5.039511964e-12
5.142664193e-12
5.248069441e-12
5.355752631e-12
5.465738634e-12
5.578052299e-12
5.692718488e-12
5.809762103e-12
5.929208124e-12
6.051081655e-12
6.175407961e-12
6.302212521e-12
6.431521073e-12
6.563359676e-12
6.697754764e-12
6.834733209e-12
6.974322393e-12
7.116550274e-12
7.261445465e-12
7.409037311e-12
7.55935598e-12
7.712432545e-12
7.868299085e-12
8.02698878e-12
8.188536018e-12
8.352976502e-12
8.520347367e-12
8.6906873e-12
8.864036662e-12
9.040437625e-12
9.219934302e-12
9.402572894e-12
9.588401837e-12
9.777471955e-12
9.969836623e-12
1.016555193e-11
1.036467685e-11
1.056727343e-11
1.077340697e-11
1.098314621e-11
1.119656354e-11
1.141373518e-11
1.163474143e-11
1.185966687e-11
1.208860059e-11
1.23216364e-11
1.255887312e-11
1.280041478e-11
1.304637092e-11
1.329685682e-11
1.355199378e-11
1.381190943e-11
1.407673798e-11
1.434662053e-11
1.462170539e-11
1.490214839e-11
1.51881132e-11
1.547977165e-11
1.577730413e-11
1.608089987e-11
1.639075735e-11
1.670708467e-11
1.703009993e-11
1.736003164e-11
1.76971191e-11
1.804161287e-11
1.839377516e-11
1.875388031e-11
1.912221526e-11
1.949908003e-11
1.988478816e-11
2.027966735e-11
2.068405992e-11
2.109832324e-11
2.152283041e-11
2.195797082e-11
2.240415074e-11
2.286179399e-11
2.333134254e-11
2.381325721e-11
2.430801832e-11
2.481612639e-11
2.533810289e-11
2.587449097e-11
2.642585625e-11
2.699278757e-11
2.7575898e-11
2.817582572e-11
2.879323496e-11
2.942881698e-11
3.008329124e-11
3.075740655e-11
3.145194209e-11
3.216770865e-11
3.290555e-11
3.366634431e-11
3.445100566e-11
3.526048568e-11
3.609577526e-11
3.695790645e-11
3.784795448e-11
3.876703994e-11
3.971633123e-11
4.069704714e-11
4.171045976e-11
4.275789765e-11
4.384074939e-11
4.496046742e-11
4.611857244e-11
4.731665824e-11
4.855639718e-11
4.983954625e-11
5.116795409e-11
5.25435687e-11
5.396844643e-11
5.544476198e-11
5.697482001e-11
5.856106823e-11
6.020611256e-11
6.191273436e-11
6.368391039e-11
6.552283566e-11
6.743294989e-11
6.941796803e-11
7.148191546e-11
7.362916886e-11
7.586450351e-11
7.819314809e-11
8.062084838e-11
8.315394115e-11
8.579944011e-11
8.856513581e-11
9.145971193e-11
9.449288061e-11
9.767554006e-11
1.010199582e-10
1.045399868e-10
1.082513107e-10
1.121717391e-10
1.163215447e-10
1.207238597e-10
1.254051376e-10
1.303956927e-10
1.357303291e-10
1.414490754e-10
1.475980423e-10
1.542304243e-10
1.614076687e-10
1.692008414e-10
1.776922217e-10
1.869771652e-10
1.971662789e-10
2.083879629e-10
2.207913782e-10
2.345499145e-10
2.498652397e-10
2.669720318e-10
2.861435052e-10
3.07697867e-10
3.320058589e-10
3.594995672e-10
3.906827142e-10
4.261426806e-10
4.665645482e-10
5.127475036e-10
5.656239998e-10
6.26282137e-10
6.959918038e-10
7.762352111e-10
8.687425519e-10
9.755336504e-10
1.0989666e-09
1.241794564e-09
1.4072321e-09
1.599032612e-09
1.821578768e-09
2.079988077e-09
2.380236133e-09
2.729300473e-09
3.135328494e-09
3.607833414e-09
4.157922945e-09
4.798566094e-09
5.54490441e-09
6.414615015e-09
7.428333956e-09
8.610149799e-09
9.98817899e-09
1.159523634e-08
1.346961617e-08
1.565600199e-08
1.820652568e-08
2.118199994e-08
2.465335201e-08
2.870329047e-08
3.342824198e-08
3.894060025e-08
4.537133566e-08
5.287302097e-08
6.16233362e-08
7.182912452e-08
8.373108035e-08
9.760916129e-08
1.137888265e-07
1.326482162e-07
1.546263989e-07
1.802328255e-07
2.100581424e-07
2.447865251e-07
2.852097058e-07
3.322428729e-07
3.869426254e-07
4.505271579e-07
5.243988463e-07
6.101693761e-07
7.096875238e-07
8.250696489e-07
9.58732882e-07
1.113430899e-06
1.292292049e-06
1.498859461e-06
1.737132568e-06
2.011609283e-06
2.327327848e-06
2.689907134e-06
3.105583911e-06
3.581245439e-06
4.124455513e-06
4.743472027e-06
5.447254104e-06
6.245456994e-06
7.148413191e-06
8.167098701e-06
9.313083935e-06
1.059846946e-05
1.203580763e-05
1.363801183e-05
1.541825598e-05
1.738986741e-05
1.956621647e-05
2.196060681e-05
2.458616951e-05
2.745576427e-05
3.058188996e-05
3.397660604e-05
3.76514649e-05
4.161745517e-05
4.5884952e-05
5.046367339e-05
5.536263703e-05
6.059011516e-05
6.615358804e-05
7.20597073e-05
7.831430332e-05
8.492091249e-05
9.188836403e-05
9.921089814e-05
0.00010691792
0.0001150071157
0.0001234809571
0.0001322046508
0.000141247569
0.0001505954082
0.0001602304524
0.000170132803
0.0001802822647
0.0001906707204
0.0002013141833
0.0002122554511
0.0002235602322
0.0002353050855
0.0002477654954
0.0002606547262
0.0002742675767
0.0002887321086
0.0003043795603
0.0003209980906
0.0003386752911
0.000356460626
0.000371103646
0.0003815468664
0.0003870895144
0.000387087718
0.0003811684456
0.0003693434797
0.0003520298157
0.000329891884
0.0003042676973
0.0002762311307
0.0002472150853
0.0002182904858
0.0001904338894
0.0001643799793
0.0001406201788
0.0001191963488
0.000100247065
8.384209246e-05
6.981225071e-05
5.792383862e-05
4.792634416e-05
3.957146783e-05
3.262116516e-05
2.685887831e-05
2.209804786e-05
1.823705444e-05
1.505501907e-05
1.240637136e-05
1.023223447e-05
8.447218786e-06
6.980643315e-06
5.774602171e-06
4.781843748e-06
3.964651811e-06
3.290085928e-06
2.73325288e-06
2.273161347e-06
1.892628891e-06
1.577579718e-06
1.316474844e-06
1.09984844e-06
9.199299049e-07
7.703355327e-07
6.458168191e-07
5.420549492e-07
4.554929443e-07
3.831985356e-07
3.227520996e-07
2.721550402e-07
2.297548299e-07
1.941836717e-07
1.643082451e-07
1.391885125e-07
1.180439226e-07
1.002256589e-07
8.519382874e-08
7.249869667e-08
6.176522951e-08
5.268035545e-08
4.498245037e-08
3.845265285e-08
3.290768249e-08
2.819389512e-08
2.418235681e-08
2.076475788e-08
1.785002022e-08
1.536147727e-08
1.323452779e-08
1.141468176e-08
9.855931207e-09
8.519390638e-09
7.372161351e-09
6.386381757e-09
5.53843253e-09
4.808270671e-09
4.17887105e-09
3.635757627e-09
3.16660957e-09
2.76093e-09
2.409767133e-09
2.10547931e-09
1.841536834e-09
1.612354668e-09
1.413151089e-09
1.239828123e-09
1.088870346e-09
9.572591245e-10
8.423998856e-10
7.420603786e-10
6.543182155e-10
5.77516259e-10
5.102246457e-10
4.512084305e-10
3.993999942e-10
3.538754907e-10
3.138347263e-10
2.785839525e-10
2.475211395e-10
2.201233599e-10
1.959359709e-10
1.745633305e-10
1.556608222e-10
1.389279986e-10
1.241026808e-10
1.109558762e-10
9.928739745e-11
8.892208203e-11
7.970652736e-11
7.150626891e-11
6.420333872e-11
5.769415137e-11
5.188767182e-11
4.670382615e-11
4.207212186e-11
3.793044903e-11
3.422403767e-11
3.090455028e-11
2.792929128e-11
2.526051778e-11
2.286483811e-11
2.071268654e-11
1.877786418e-11
1.703713735e-11
1.546988596e-11
1.405779541e-11
1.278458642e-11
1.163577791e-11
1.059847875e-11
9.661204737e-12
8.813717503e-12
8.046882786e-12
7.352545509e-12
6.723419642e-12
6.152991028e-12
5.635431558e-12
5.165523338e-12
4.738591616e-12
4.350445431e-12
3.997325039e-12
3.675855322e-12
3.383004469e-12
3.116047292e-12
2.87253266e-12
2.650254541e-12
2.447226257e-12
2.261657563e-12
2.091934242e-12
1.936599912e-12
1.794339812e-12
1.663966321e-12
1.544406037e-12
1.434688228e-12
1.33393451e-12
1.241349603e-12
1.156213071e-12
1.077871908e-12
1.005733902e-12
9.392616828e-13
8.77967376e-13
8.214078077e-13
7.691801938e-13
7.209182655e-13
6.762887849e-13
6.34988408e-13
5.967408605e-13
5.612943936e-13
5.284194892e-13
4.979067918e-13
4.695652407e-13
4.432203843e-13
4.18712857e-13
3.958970021e-13
3.74639627e-13
3.548188768e-13
3.363232145e-13
3.19050497e-13
3.029071384e-13
2.878073515e-13
2.736724589e-13
2.604302689e-13
2.480145084e-13
2.363643079e-13
2.254237334e-13
2.151413605e-13
2.054698882e-13
1.963657862e-13
1.877889744e-13
1.79702531e-13
1.720724263e-13
1.648672805e-13
1.580581423e-13
1.516182873e-13
1.45523034e-13
1.397495755e-13
1.34276826e-13
1.290852807e-13
1.241568875e-13
1.194749294e-13
1.150239178e-13
1.107894936e-13
1.06758338e-13
1.029180897e-13
9.925726973e-14
9.576521215e-14
9.243200081e-14
8.924841106e-14
8.620585645e-14
8.32963397e-14
8.051240775e-14
7.784711059e-14
7.529396306e-14
7.284691007e-14
7.050029447e-14
6.824882747e-14
6.608756173e-14
6.401186595e-14
6.201740219e-14
6.010010433e-14
5.825615872e-14
5.648198597e-14
5.477422456e-14
5.31297152e-14
5.154548685e-14
5.001874352e-14
4.854685218e-14
4.712733172e-14
4.575784257e-14
4.443617696e-14
4.316025026e-14
4.192809283e-14
4.073784237e-14
3.958773685e-14
3.847610805e-14
3.740137555e-14
3.636204115e-14
3.535668361e-14
3.438395386e-14
3.34425705e-14
3.253131564e-14
3.164903111e-14
3.079461484e-14
2.996701742e-14
2.916523906e-14
2.838832663e-14
2.763537094e-14
2.690550434e-14
2.619789822e-14
2.551176096e-14
2.484633572e-14
2.420089865e-14
2.357475704e-14
2.296724759e-14
2.237773496e-14
2.180561023e-14
2.125028952e-14
2.071121271e-14
2.018784225e-14
1.967966204e-14
1.918617626e-14
1.870690852e-14
1.824140077e-14
1.778921258e-14
1.734992012e-14
1.692311552e-14
1.650840601e-14
1.610541336e-14
1.571377312e-14
1.533313404e-14
1.496315745e-14
1.460351674e-14
1.425389683e-14
1.391399368e-14
1.358351381e-14
1.326217383e-14
1.294970003e-14
1.264582805e-14
1.235030243e-14
1.206287625e-14
1.178331077e-14
1.151137517e-14
1.12468462e-14
1.098950786e-14
1.073915119e-14
1.049557396e-14
1.025858047e-14
1.002798116e-14
9.803592516e-15
9.585236848e-15
9.372741984e-15
9.165941168e-15
8.964672769e-15
8.768780172e-15
8.578111632e-15
8.392520008e-15
8.211862645e-15
8.036001223e-15
7.864801596e-15
7.698133695e-15
7.535871347e-15
7.377892116e-15
7.224077219e-15
7.074311418e-15
6.928482891e-15
6.786483093e-15
6.648206686e-15
6.513551385e-15
6.382417925e-15
6.254709917e-15
6.13033378e-15
6.009198625e-15
5.891216193e-15
5.776300759e-15
5.664369079e-15
5.555340306e-15
5.449135879e-15
5.345679476e-15
5.244896925e-15
5.146716196e-15
5.051067295e-15
4.9578822e-15
4.86709479e-15
4.778640832e-15
4.692457862e-15
4.608485178e-15
4.526663799e-15
4.446936372e-15
4.36924713e-15
4.293541869e-15
4.219767901e-15
4.147873985e-15
4.077810285e-15
4.009528369e-15
3.942981117e-15
3.878122737e-15
3.814908656e-15
3.753295551e-15
3.693241284e-15
3.634704858e-15
3.577646417e-15
3.522027166e-15
3.467809395e-15
3.414956393e-15
3.363432467e-15
3.313202881e-15
3.264233841e-15
3.21649248e-15
3.169946808e-15
3.124565706e-15
3.080318896e-15
3.03717691e-15
2.995111069e-15
2.954093475e-15
2.914096963e-15
2.875095112e-15
2.837062212e-15
2.799973233e-15
2.763803808e-15
2.728530232e-15
2.694129421e-15
2.660578917e-15
2.627856851e-15
2.595941952e-15
2.56481348e-15
2.534451279e-15
2.504835703e-15
2.47594765e-15
2.447768505e-15
2.420280166e-15
2.393464991e-15
2.367305808e-15
2.341785896e-15
2.31688897e-15
2.292599193e-15
2.268901115e-15
2.245779715e-15
2.223220374e-15
2.201208824e-15
2.179731205e-15
2.158773986e-15
2.138324014e-15
2.118368468e-15
2.098894883e-15
2.079891098e-15
2.061345263e-15
2.043245849e-15
2.025581635e-15
2.008341672e-15
1.991515308e-15
1.975092172e-15
1.959062159e-15
1.943415408e-15
1.928142338e-15
1.913233598e-15
1.898680096e-15
1.884472968e-15
1.870603574e-15
1.857063496e-15
1.843844542e-15
1.830938721e-15
1.818338257e-15
1.806035559e-15
1.79402326e-15
1.782294153e-15
1.770841227e-15
1.759657652e-15
1.748736777e-15
1.738072111e-15
1.727657344e-15
1.717486299e-15
1.707552986e-15
1.697851558e-15
1.68837632e-15
1.679121717e-15
1.670082338e-15
1.661252903e-15
1.652628276e-15
1.644203457e-15
1.635973564e-15
1.627933828e-15
1.620079619e-15
1.612406417e-15
1.604909817e-15
1.597585529e-15
1.590429372e-15
1.583437265e-15
1.576605237e-15
1.569929403e-15
1.563405989e-15
1.557031318e-15
1.550801802e-15
1.544713927e-15
1.538764304e-15
1.532949592e-15
1.527266556e-15
1.521712035e-15
1.516282947e-15
1.510976292e-15
1.505789143e-15
1.500718642e-15
1.495762006e-15
1.490916524e-15
1.486179543e-15
1.481548492e-15
1.477020861e-15
1.472594191e-15
1.46826609e-15
1.464034226e-15
1.459896329e-15
1.455850181e-15
1.451893612e-15
1.448024526e-15
1.444240859e-15
1.440540606e-15
1.436921818e-15
1.433382586e-15
1.429921049e-15
1.426535392e-15
1.42322384e-15
1.419984671e-15
1.416816202e-15
1.413716794e-15
1.41068485e-15
1.407718811e-15
1.404817145e-15
1.401978363e-15
1.39920102e-15
1.396483697e-15
1.393825019e-15
1.391223638e-15
1.388678242e-15
1.386187553e-15
1.383750318e-15
1.381365314e-15
1.379031349e-15
1.376747265e-15
1.374511928e-15
1.372324231e-15
1.370183094e-15
1.368087464e-15
1.366036311e-15
1.364028633e-15
1.362063446e-15
1.360139796e-15
1.358256743e-15
1.356413374e-15
1.354608795e-15
1.352842137e-15
1.351112543e-15
1.349419192e-15
1.34776127e-15
1.346137979e-15
1.344548546e-15
1.34299221e-15
1.341468226e-15
1.339975873e-15
1.338514442e-15
1.337083235e-15
1.335681574e-15
1.334308793e-15
1.332964239e-15
1.331647271e-15
1.330357266e-15
1.32909361e-15
1.327855704e-15
1.32664296e-15
1.325454796e-15
1.324290647e-15
1.323149953e-15
1.322032169e-15
1.320936758e-15
1.31986319e-15
1.318810944e-15
1.317779514e-15
1.316768394e-15
1.31577709e-15
1.314805114e-15
1.31385199e-15
1.312917249e-15
1.312000421e-15
1.311101053e-15
1.31021869e-15
1.309352885e-15
1.308503186e-15
1.30766913e-15
1.30685024e-15
1.306046007e-15
1.305255862e-15
1.304479175e-15
1.298262565e-15
1.291030213e-15
1.285821634e-15
1.282264632e-15
1.280087196e-15
1.279105267e-15
1.279193901e-15
1.280269413e-15
1.282278051e-15
1.285188071e-15
1.288984137e-15
1.293663394e-15
1.29923247e-15
1.305705358e-15
1.313101866e-15
1.321446377e-15
1.330767028e-15
1.341095044e-15
1.352464133e-15
1.36491015e-15
1.378470667e-15
1.3931847e-15
1.409092435e-15
1.42623489e-15
1.444653631e-15
1.46439048e-15
1.485487138e-15
1.507984808e-15
1.531923769e-15
1.557342884e-15
1.584279074e-15
1.612766722e-15
1.642837022e-15
1.674517266e-15
1.707830083e-15
1.742792618e-15
1.779415681e-15
1.817702849e-15
1.857649552e-15
1.899242159e-15
1.942457077e-15
1.987259883e-15
2.033604521e-15
2.08143259e-15
2.130672738e-15
2.181240215e-15
2.233036589e-15
2.285949678e-15
2.339853684e-15
2.39460961e-15
2.450065914e-15
2.506059445e-15
2.562416667e-15
2.618955144e-15
2.675485276e-15
2.731812286e-15
2.78773838e-15
2.843065091e-15
2.897595723e-15
2.951137825e-15
3.003505717e-15
3.054522877e-15
3.104024262e-15
3.151858415e-15
3.197889344e-15
3.241998104e-15
3.284084072e-15
3.324065856e-15
3.361881854e-15
3.397490426e-15
3.4308697e-15
3.462017036e-15
3.490948158e-15
3.517696003e-15
3.542309319e-15
3.56485106e-15
3.585396635e-15
3.604032056e-15
3.620852024e-15
3.635958025e-15
3.649456453e-15
3.66145682e-15
3.672070066e-15
3.681407018e-15
3.68957699e-15
3.696686578e-15
3.702838605e-15
3.708131275e-15
3.712657483e-15
3.716504315e-15
3.719752699e-15
3.722477208e-15
3.724745999e-15
3.726620866e-15
3.728157391e-15
3.729405189e-15
3.730408204e-15
3.731205068e-15
3.731829487e-15
3.732310654e-15
3.73267367e-15
3.732939962e-15
3.733127693e-15
3.733252158e-15
3.733326149e-15
3.7333603e-15
3.733363403e-15
3.733342683e-15
3.733304055e-15
3.733252335e-15
3.733191432e-15
3.733124504e-15
3.733054094e-15
3.732982236e-15
3.732910545e-15
3.732840289e-15
3.732772447e-15
3.732707747e-15
3.732646711e-15
3.732589676e-15
3.732536821e-15
3.732488189e-15
3.732443701e-15
3.732403179e-15
3.732366359e-15
3.732332911e-15
3.732302454e-15
3.732274574e-15
3.732248843e-15
3.732224831e-15
3.732202123e-15
3.732180334e-15
3.732159115e-15
3.732138167e-15
3.732117245e-15
3.73209616e-15
3.732074784e-15
3.732053044e-15
3.732030924e-15
3.732008451e-15
3.731985698e-15
3.731962767e-15
3.731939788e-15
3.731916901e-15
3.731894259e-15
3.731872008e-15
3.731850289e-15
3.731829229e-15
3.731808935e-15
3.731789493e-15
3.731770967e-15
3.731753394e-15
3.731736791e-15
3.731721153e-15
3.731706456e-15
3.731692661e-15
3.731679715e-15
3.73166756e-15
3.731656128e-15
3.731645353e-15
3.731635168e-15
3.731625509e-15
3.731616318e-15
3.731607544e-15
3.731599142e-15
3.731591076e-15
3.731583317e-15
3.731575845e-15
3.731568646e-15
3.731561715e-15
3.731555048e-15
3.731548652e-15
3.731542533e-15
3.731536704e-15
3.731531179e-15
3.731525974e-15
3.731521108e-15
3.731516598e-15
3.731512464e-15
3.731508725e-15
3.731505399e-15
3.731502503e-15
3.731500051e-15
3.731498057e-15
3.73149653e-15
3.731495477e-15
3.731494901e-15
3.7314948e-15
3.731495168e-15
3.731495994e-15
3.73149726e-15
3.731498946e-15
3.731501025e-15
3.731503465e-15
3.731506229e-15
3.731509276e-15
3.731512563e-15
3.731516041e-15
3.731519661e-15
3.731523371e-15
3.731527117e-15
3.731530849e-15
3.731534514e-15
3.731538061e-15
3.731541442e-15
3.731544612e-15
3.73154753e-15
3.731550157e-15
3.73155246e-15
3.731554411e-15
3.731555987e-15
3.731557168e-15
3.731557943e-15
3.731558304e-15
3.731558247e-15
3.731557775e-15
3.731556895e-15
3.731555619e-15
3.731553961e-15
3.73155194e-15
3.73154958e-15
3.731546903e-15
3.731543936e-15
3.731540709e-15
3.731537251e-15
3.731533593e-15
3.731529766e-15
3.731525801e-15
3.731521729e-15
3.73151758e-15
3.731513385e-15
3.731509172e-15
3.731504968e-15
3.7315008e-15
3.73149669e-15
3.731492662e-15
3.731488737e-15
3.731484933e-15
3.731481267e-15
3.731477754e-15
3.731474407e-15
3.731471236e-15
3.731468251e-15
3.731465457e-15
3.731462862e-15
3.731460472e-15
3.7314583e-15
3.731456378e-15
3.731454791e-15
3.731453743e-15
)
;

boundaryField
{
    inlet
    {
        type            fixedValue;
        value           uniform 0;
    }
    outlet
    {
        type            zeroGradient;
    }
    wall
    {
        type            empty;
    }
}


// ************************************************************************* //
