/*--------------------------------*- C++ -*----------------------------------*\
  =========                 |
  \\      /  F ield         | OpenFOAM: The Open Source CFD Toolbox
   \\    /   O peration     | Website:  https://openfoam.org
    \\  /    A nd           | Version:  7
     \\/     M anipulation  |
\*---------------------------------------------------------------------------*/
FoamFile
{
    version     2.0;
    format      ascii;
    class       volScalarField;
    location    "0.000558243009";
    object      CH3O2;
}
// * * * * * * * * * * * * * * * * * * * * * * * * * * * * * * * * * * * * * //

dimensions      [0 0 0 0 0 0 0];

internalField   nonuniform List<scalar> 
1500
(
1.346048837e-14
5.264528425e-14
1.08636842e-13
1.631392878e-13
2.038380471e-13
2.287340315e-13
2.416938597e-13
2.475728511e-13
2.499361165e-13
2.507891401e-13
2.510686723e-13
2.51152615e-13
2.511758996e-13
2.511819063e-13
2.511833557e-13
2.511836845e-13
2.511837549e-13
2.511837691e-13
2.511837719e-13
2.511837723e-13
2.511837724e-13
2.511837724e-13
2.511837724e-13
2.511837724e-13
2.511837724e-13
2.511837724e-13
2.511837724e-13
2.511837724e-13
2.511837724e-13
2.511837724e-13
2.511837724e-13
2.511837724e-13
2.511837724e-13
2.511837724e-13
2.511837724e-13
2.511837724e-13
2.511837724e-13
2.511837724e-13
2.511837724e-13
2.511837724e-13
2.511837724e-13
2.511837724e-13
2.511837724e-13
2.511837723e-13
2.511837723e-13
2.511837723e-13
2.511837723e-13
2.511837723e-13
2.511837723e-13
2.511837723e-13
2.511837723e-13
2.511837723e-13
2.511837723e-13
2.511837723e-13
2.511837723e-13
2.511837723e-13
2.511837723e-13
2.511837723e-13
2.511837723e-13
2.511837723e-13
2.511837723e-13
2.511837723e-13
2.511837723e-13
2.511837723e-13
2.511837723e-13
2.511837723e-13
2.511837723e-13
2.511837723e-13
2.511837723e-13
2.511837723e-13
2.511837723e-13
2.511837723e-13
2.511837723e-13
2.511837723e-13
2.511837723e-13
2.511837723e-13
2.511837723e-13
2.511837723e-13
2.511837723e-13
2.511837723e-13
2.511837724e-13
2.511837724e-13
2.511837724e-13
2.511837724e-13
2.511837724e-13
2.511837724e-13
2.511837724e-13
2.511837724e-13
2.511837724e-13
2.511837724e-13
2.511837724e-13
2.511837724e-13
2.511837724e-13
2.511837723e-13
2.511837723e-13
2.511837723e-13
2.511837723e-13
2.511837723e-13
2.511837723e-13
2.511837723e-13
2.511837723e-13
2.511837723e-13
2.511837723e-13
2.511837723e-13
2.511837723e-13
2.511837722e-13
2.511837722e-13
2.511837722e-13
2.511837722e-13
2.511837722e-13
2.511837722e-13
2.511837722e-13
2.511837722e-13
2.511837722e-13
2.511837722e-13
2.511837722e-13
2.511837722e-13
2.511837722e-13
2.511837722e-13
2.511837722e-13
2.511837722e-13
2.511837722e-13
2.511837722e-13
2.511837722e-13
2.511837722e-13
2.511837722e-13
2.511837722e-13
2.511837722e-13
2.511837722e-13
2.511837722e-13
2.511837722e-13
2.511837722e-13
2.511837722e-13
2.511837722e-13
2.511837722e-13
2.511837722e-13
2.511837722e-13
2.511837722e-13
2.511837722e-13
2.511837722e-13
2.511837722e-13
2.511837722e-13
2.511837722e-13
2.511837722e-13
2.511837722e-13
2.511837722e-13
2.511837722e-13
2.511837722e-13
2.511837722e-13
2.511837722e-13
2.511837723e-13
2.511837723e-13
2.511837723e-13
2.511837723e-13
2.511837723e-13
2.511837723e-13
2.511837723e-13
2.511837723e-13
2.511837723e-13
2.511837723e-13
2.511837723e-13
2.511837723e-13
2.511837723e-13
2.511837723e-13
2.511837723e-13
2.511837723e-13
2.511837723e-13
2.511837723e-13
2.511837723e-13
2.511837723e-13
2.511837724e-13
2.511837724e-13
2.511837724e-13
2.511837724e-13
2.511837724e-13
2.511837724e-13
2.511837723e-13
2.511837723e-13
2.511837723e-13
2.511837723e-13
2.511837723e-13
2.511837723e-13
2.511837723e-13
2.511837723e-13
2.511837723e-13
2.511837723e-13
2.511837723e-13
2.511837723e-13
2.511837723e-13
2.511837723e-13
2.511837723e-13
2.511837723e-13
2.511837723e-13
2.511837722e-13
2.511837722e-13
2.511837722e-13
2.511837722e-13
2.511837722e-13
2.511837722e-13
2.511837722e-13
2.511837723e-13
2.511837723e-13
2.511837723e-13
2.511837723e-13
2.511837723e-13
2.511837723e-13
2.511837723e-13
2.511837723e-13
2.511837723e-13
2.511837723e-13
2.511837723e-13
2.511837724e-13
2.511837724e-13
2.511837724e-13
2.511837724e-13
2.511837724e-13
2.511837724e-13
2.511837724e-13
2.511837724e-13
2.511837724e-13
2.511837724e-13
2.511837724e-13
2.511837724e-13
2.511837724e-13
2.511837724e-13
2.511837724e-13
2.511837724e-13
2.511837725e-13
2.511837725e-13
2.511837725e-13
2.511837726e-13
2.511837726e-13
2.511837727e-13
2.511837727e-13
2.511837728e-13
2.511837729e-13
2.511837732e-13
2.511837744e-13
2.511837786e-13
2.511837932e-13
2.511838414e-13
2.511839907e-13
2.511844247e-13
2.511856043e-13
2.511885895e-13
2.511955793e-13
2.512105746e-13
2.5123955e-13
2.512882728e-13
2.513534821e-13
2.513779985e-13
2.513848785e-13
2.513920234e-13
2.513994485e-13
2.514071656e-13
2.514151859e-13
2.514235217e-13
2.514321863e-13
2.514411941e-13
2.514505607e-13
2.514603023e-13
2.514704362e-13
2.514809803e-13
2.514919536e-13
2.515033761e-13
2.515152687e-13
2.515276537e-13
2.515405541e-13
2.515539946e-13
2.51568001e-13
2.515826005e-13
2.515978219e-13
2.516136954e-13
2.516302529e-13
2.516475283e-13
2.516655569e-13
2.516843762e-13
2.517040259e-13
2.517245476e-13
2.517459854e-13
2.517683857e-13
2.517917976e-13
2.518162729e-13
2.518418662e-13
2.518686351e-13
2.518966406e-13
2.519259469e-13
2.519566218e-13
2.51988737e-13
2.52022368e-13
2.520575945e-13
2.520945007e-13
2.521331755e-13
2.521737126e-13
2.522162109e-13
2.522607747e-13
2.523075142e-13
2.523565454e-13
2.524079908e-13
2.524619795e-13
2.525186477e-13
2.525781389e-13
2.526406043e-13
2.527062035e-13
2.527751043e-13
2.528474838e-13
2.529235282e-13
2.530034337e-13
2.530874071e-13
2.531756656e-13
2.532684381e-13
2.533659652e-13
2.534685001e-13
2.535763088e-13
2.536896713e-13
2.538088813e-13
2.539342479e-13
2.540660954e-13
2.542047645e-13
2.543506125e-13
2.545040148e-13
2.546653648e-13
2.548350753e-13
2.550135789e-13
2.55201329e-13
2.553988005e-13
2.55606491e-13
2.558249213e-13
2.560546363e-13
2.562962063e-13
2.565502275e-13
2.568173235e-13
2.570981455e-13
2.573933743e-13
2.577037203e-13
2.580299254e-13
2.583727636e-13
2.587330422e-13
2.591116029e-13
2.595093229e-13
2.599271162e-13
2.603659343e-13
2.608267679e-13
2.613106477e-13
2.618186456e-13
2.623518762e-13
2.629114975e-13
2.634987125e-13
2.641147703e-13
2.647609671e-13
2.654386476e-13
2.661492062e-13
2.668940881e-13
2.676747904e-13
2.684928635e-13
2.693499122e-13
2.702475965e-13
2.711876333e-13
2.721717972e-13
2.732019213e-13
2.74279899e-13
2.754076843e-13
2.765872931e-13
2.778208043e-13
2.791103604e-13
2.804581687e-13
2.818665021e-13
2.833376995e-13
2.848741672e-13
2.864783791e-13
2.881528774e-13
2.899002734e-13
2.917232478e-13
2.936245515e-13
2.956070053e-13
2.976735009e-13
2.998270008e-13
3.020705386e-13
3.04407219e-13
3.068402177e-13
3.093727815e-13
3.12008228e-13
3.147499456e-13
3.176013925e-13
3.205660971e-13
3.236476569e-13
3.268497378e-13
3.301760737e-13
3.336304655e-13
3.372167802e-13
3.409389497e-13
3.448009698e-13
3.48806899e-13
3.52960857e-13
3.572670233e-13
3.617296356e-13
3.663529886e-13
3.711414313e-13
3.760993661e-13
3.812312465e-13
3.865415749e-13
3.920349007e-13
3.97715818e-13
4.035889637e-13
4.096590143e-13
4.159306843e-13
4.224087233e-13
4.290979137e-13
4.360030678e-13
4.431290251e-13
4.504806501e-13
4.580628292e-13
4.658804677e-13
4.739384876e-13
4.822418245e-13
4.907954249e-13
4.996042433e-13
5.086732396e-13
5.180073763e-13
5.276116161e-13
5.374909188e-13
5.476502393e-13
5.580945245e-13
5.688287118e-13
5.79857726e-13
5.911864778e-13
6.028198612e-13
6.147627524e-13
6.270200074e-13
6.395964612e-13
6.524969257e-13
6.657261896e-13
6.792890166e-13
6.931901456e-13
7.0743429e-13
7.220261377e-13
7.369703514e-13
7.522715694e-13
7.679344061e-13
7.839634539e-13
8.003632845e-13
8.171384512e-13
8.342934911e-13
8.518329285e-13
8.697612782e-13
8.880830492e-13
9.068027493e-13
9.259248901e-13
9.454539924e-13
9.653945924e-13
9.857512478e-13
1.006528546e-12
1.027731111e-12
1.049363613e-12
1.071430777e-12
1.093937392e-12
1.116888323e-12
1.140288522e-12
1.164143038e-12
1.188457035e-12
1.213235801e-12
1.238484762e-12
1.264209502e-12
1.290415776e-12
1.317109528e-12
1.344296909e-12
1.371984293e-12
1.400178304e-12
1.428885829e-12
1.458114047e-12
1.487870445e-12
1.518162847e-12
1.548999438e-12
1.580388787e-12
1.61233988e-12
1.644862143e-12
1.677965473e-12
1.71166027e-12
1.745957467e-12
1.780868566e-12
1.816405667e-12
1.852581509e-12
1.889409504e-12
1.926903776e-12
1.965079199e-12
2.003951443e-12
2.043537007e-12
2.083853272e-12
2.124918541e-12
2.166752087e-12
2.209374202e-12
2.252806245e-12
2.297070695e-12
2.342191203e-12
2.388192647e-12
2.43510119e-12
2.482944334e-12
2.531750984e-12
2.58155151e-12
2.632377808e-12
2.684263368e-12
2.73724334e-12
2.791354609e-12
2.84663586e-12
2.903127658e-12
2.960872525e-12
3.019915017e-12
3.080301806e-12
3.142081769e-12
3.205306073e-12
3.270028267e-12
3.336304379e-12
3.404193015e-12
3.473755448e-12
3.545055753e-12
3.618160894e-12
3.693140829e-12
3.770068639e-12
3.849020653e-12
3.930076575e-12
4.013319619e-12
4.098836654e-12
4.186718342e-12
4.277059294e-12
4.369958226e-12
4.465518125e-12
4.563846423e-12
4.665055188e-12
4.769261301e-12
4.876586696e-12
4.987158578e-12
5.101109671e-12
5.218578466e-12
5.339709526e-12
5.464653795e-12
5.593568901e-12
5.726619514e-12
5.863977745e-12
6.005823578e-12
6.152345353e-12
6.303740285e-12
6.460215056e-12
6.62198646e-12
6.789282135e-12
6.962341376e-12
7.141416058e-12
7.326771676e-12
7.518688518e-12
7.717463006e-12
7.923409215e-12
8.136860615e-12
8.358172057e-12
8.587722053e-12
8.825915401e-12
9.073186194e-12
9.330001302e-12
9.596864381e-12
9.874320515e-12
1.016296158e-11
1.046343249e-11
1.077643835e-11
1.110275293e-11
1.144322829e-11
1.179880618e-11
1.217053114e-11
1.255956587e-11
1.296720903e-11
1.339491604e-11
1.38443233e-11
1.431727647e-11
1.481586335e-11
1.534245239e-11
1.589973748e-11
1.649079035e-11
1.711912164e-11
1.778875227e-11
1.850429678e-11
1.927106064e-11
2.009515389e-11
2.098362395e-11
2.194461073e-11
2.298752783e-11
2.412327433e-11
2.536448212e-11
2.672580508e-11
2.822425679e-11
2.987960534e-11
3.171483464e-11
3.375668342e-11
3.60362753e-11
3.858985493e-11
4.145964839e-11
4.469486865e-11
4.835289061e-11
5.250062426e-11
5.721611951e-11
6.259044153e-11
6.872986244e-11
7.575842248e-11
8.382092305e-11
9.308642444e-11
1.037523331e-10
1.160491783e-10
1.302461934e-10
1.466578385e-10
1.656514222e-10
1.876560081e-10
2.131728223e-10
2.427874146e-10
2.771838696e-10
3.171614127e-10
3.636538138e-10
4.177520617e-10
4.807308589e-10
5.540795825e-10
6.395384621e-10
7.391408556e-10
8.552626524e-10
9.90680004e-10
1.14863679e-09
1.33292346e-09
1.547969179e-09
1.798949518e-09
2.091912322e-09
2.433924831e-09
2.833245657e-09
3.29952582e-09
3.84404379e-09
4.4799803e-09
5.222739689e-09
6.090325722e-09
7.10378116e-09
8.287701977e-09
9.670839013e-09
1.128680205e-08
1.317488393e-08
1.538102539e-08
1.795894499e-08
2.097146257e-08
2.449205014e-08
2.860664955e-08
3.341580383e-08
3.90371571e-08
4.560838784e-08
5.329065225e-08
6.227262776e-08
7.277526329e-08
8.5057362e-08
9.942214463e-08
1.162249682e-07
1.358824056e-07
1.588829277e-07
1.857994711e-07
2.173042221e-07
2.541860018e-07
2.973706982e-07
3.47945255e-07
4.071858019e-07
4.765905799e-07
5.579183911e-07
6.532333657e-07
7.649568908e-07
8.9592757e-07
1.049470071e-06
1.229473647e-06
1.440480979e-06
1.687787728e-06
1.977552856e-06
2.316919247e-06
2.714143546e-06
3.178733355e-06
3.721589028e-06
4.355146369e-06
5.09351562e-06
5.952611295e-06
6.950266913e-06
8.106328474e-06
9.442720896e-06
1.098348248e-05
1.275476394e-05
1.478479047e-05
1.710378752e-05
1.974387327e-05
2.273892308e-05
2.612441266e-05
2.993724822e-05
3.421559188e-05
3.89986902e-05
4.432671121e-05
5.024059174e-05
5.678188441e-05
6.399258271e-05
7.191486327e-05
8.059062848e-05
9.006062862e-05
0.000100362774
0.0001115289782
0.0001235765846
0.0001365116397
0.0001502745607
0.000164804343
0.0001798700377
0.0001950789421
0.0002095657797
0.0002225388883
0.0002327348398
0.0002386116238
0.0002385434056
0.0002311873511
0.0002161109003
0.0001942059717
0.0001678883488
0.0001402761678
0.0001140789847
9.066740723e-05
7.132380656e-05
5.565977861e-05
4.324128854e-05
3.341138668e-05
2.582505804e-05
1.992325386e-05
1.534620404e-05
1.180948938e-05
9.107695111e-06
7.025898995e-06
5.419149275e-06
4.177568537e-06
3.218043e-06
2.4769097e-06
1.902081786e-06
1.460949056e-06
1.119672199e-06
8.57809463e-07
6.564080014e-07
5.017826496e-07
3.833286522e-07
2.928249044e-07
2.231688692e-07
1.697581946e-07
1.291390837e-07
9.827940964e-08
7.483864227e-08
5.703349135e-08
4.350808576e-08
3.322590176e-08
2.539761477e-08
1.943762974e-08
1.496839527e-08
1.155343562e-08
8.911925747e-09
6.892547369e-09
5.345351357e-09
4.156877739e-09
3.241509967e-09
2.534601733e-09
1.98777561e-09
1.562903289e-09
1.232255472e-09
9.74275198e-10
7.724707485e-10
6.141961642e-10
4.897328702e-10
3.915957034e-10
3.14007045e-10
2.524974095e-10
2.036014589e-10
1.646262079e-10
1.334739504e-10
1.085067452e-10
8.844251624e-11
7.22752424e-11
5.921352795e-11
4.863323385e-11
4.004086882e-11
3.304523857e-11
2.733544275e-11
2.266375959e-11
1.883230233e-11
1.568259183e-11
1.308738898e-11
1.09442818e-11
9.170638166e-12
7.699623663e-12
6.477052251e-12
5.458889396e-12
4.609267754e-12
3.898906339e-12
3.303848129e-12
2.804449538e-12
2.384569611e-12
2.03091795e-12
1.732529082e-12
1.480337809e-12
1.266835354e-12
1.085790349e-12
9.320219288e-13
8.012148223e-13
6.89768359e-13
5.946729169e-13
5.134086276e-13
4.438621681e-13
3.842582807e-13
3.331033099e-13
2.891385639e-13
2.513017217e-13
2.186948443e-13
1.905578138e-13
1.662462429e-13
1.452130734e-13
1.26993222e-13
1.111907497e-13
9.746812355e-14
8.553721541e-14
7.515174635e-14
6.610093486e-14
5.820414973e-14
5.13064023e-14
4.527454107e-14
3.999403498e-14
3.536625058e-14
3.130614433e-14
2.774030415e-14
2.460528528e-14
2.184619443e-14
1.941548375e-14
1.727192215e-14
1.537971698e-14
1.370776314e-14
1.222900031e-14
1.091986227e-14
9.759804372e-15
8.730897832e-15
7.817480799e-15
7.005858089e-15
6.284042431e-15
5.641531276e-15
5.069114068e-15
4.55870566e-15
4.103202169e-15
3.696356118e-15
3.332668189e-15
3.007293273e-15
2.715958853e-15
2.454894031e-15
2.220767757e-15
2.010635001e-15
1.821889831e-15
1.652224437e-15
1.49959335e-15
1.362182143e-15
1.238380041e-15
1.126755934e-15
1.026037336e-15
9.350919291e-16
8.52911357e-16
7.785969718e-16
7.11347303e-16
6.504470215e-16
5.952572162e-16
5.452068198e-16
4.997850423e-16
4.585346869e-16
4.210462431e-16
3.869526611e-16
3.559247258e-16
3.27666959e-16
3.019139861e-16
2.784273132e-16
2.569924647e-16
2.37416441e-16
2.195254583e-16
2.031629364e-16
1.881877087e-16
1.744724263e-16
1.619021356e-16
1.503730099e-16
1.397912157e-16
1.300719012e-16
1.211382919e-16
1.12920881e-16
1.053567055e-16
9.83886978e-17
9.196510408e-17
8.603896356e-17
8.05676409e-17
7.551240633e-17
7.083805861e-17
6.651258619e-17
6.25068624e-17
5.879437118e-17
5.535096018e-17
5.21546184e-17
4.91852756e-17
4.642462153e-17
4.385594281e-17
4.146397561e-17
3.923477265e-17
3.715558294e-17
3.521474307e-17
3.340157892e-17
3.17063165e-17
3.012000146e-17
2.863442603e-17
2.724206284e-17
2.593600479e-17
2.470991065e-17
2.355795559e-17
2.247478628e-17
2.145548007e-17
2.049550792e-17
1.959070064e-17
1.873721823e-17
1.793152195e-17
1.717034883e-17
1.645068856e-17
1.576976234e-17
1.512500362e-17
1.451404054e-17
1.39346799e-17
1.338489252e-17
1.286279986e-17
1.236666184e-17
1.189486562e-17
1.144591545e-17
1.101842329e-17
1.06111003e-17
1.022274896e-17
9.852255961e-18
9.498585581e-18
9.160773695e-18
8.837922229e-18
8.529194139e-18
8.23380871e-18
7.95103732e-18
7.680199496e-18
7.420659319e-18
7.171822141e-18
6.933131487e-18
6.704066299e-18
6.484138317e-18
6.272889729e-18
6.069890963e-18
5.874738709e-18
5.687054012e-18
5.506480589e-18
5.332683229e-18
5.165346334e-18
5.004172592e-18
4.848881717e-18
4.699209277e-18
4.554905651e-18
4.415735048e-18
4.281474594e-18
4.151913458e-18
4.026852096e-18
3.906101523e-18
3.789482643e-18
3.676825615e-18
3.567969274e-18
3.462760598e-18
3.361054196e-18
3.26271187e-18
3.167602171e-18
3.075599985e-18
2.986586173e-18
2.900447206e-18
2.81707484e-18
2.736365846e-18
2.658221683e-18
2.58254827e-18
2.509255711e-18
2.43825809e-18
2.369473234e-18
2.302822515e-18
2.238230674e-18
2.175625634e-18
2.114938336e-18
2.056102583e-18
1.999054894e-18
1.943734377e-18
1.890082576e-18
1.838043381e-18
1.78756289e-18
1.73858932e-18
1.691072887e-18
1.644965732e-18
1.600221804e-18
1.556796813e-18
1.514648117e-18
1.473734662e-18
1.434016911e-18
1.395456771e-18
1.358017532e-18
1.321663816e-18
1.286361506e-18
1.252077699e-18
1.218780647e-18
1.186439727e-18
1.155025378e-18
1.124509061e-18
1.094863216e-18
1.066061224e-18
1.038077376e-18
1.010886824e-18
9.844655609e-19
9.587903766e-19
9.338388465e-19
9.095892688e-19
8.86020661e-19
8.631127324e-19
8.408458467e-19
8.192010096e-19
7.981598301e-19
7.777045102e-19
7.578178324e-19
7.384831188e-19
7.196842193e-19
7.014054941e-19
6.836317946e-19
6.663484514e-19
6.49541254e-19
6.33196426e-19
6.173006195e-19
6.018409025e-19
5.868047417e-19
5.721799855e-19
5.579548568e-19
5.441179322e-19
5.3065814e-19
5.175647415e-19
5.048273263e-19
4.924357921e-19
4.803803431e-19
4.686514742e-19
4.572399695e-19
4.461368887e-19
4.353335537e-19
4.248215439e-19
4.145926836e-19
4.046390452e-19
3.949529343e-19
3.855268819e-19
3.763536352e-19
3.674261585e-19
3.587376149e-19
3.502813692e-19
3.420509845e-19
3.34040205e-19
3.262429565e-19
3.186533406e-19
3.112656316e-19
3.040742671e-19
2.970738417e-19
2.902591107e-19
2.836249757e-19
2.771664884e-19
2.708788356e-19
2.647573454e-19
2.587974784e-19
2.52994824e-19
2.473450982e-19
2.41844134e-19
2.364878879e-19
2.312724258e-19
2.261939271e-19
2.212486781e-19
2.164330687e-19
2.117435923e-19
2.071768388e-19
2.027294951e-19
1.983983407e-19
1.941802444e-19
1.900721605e-19
1.860711316e-19
1.821742794e-19
1.783788075e-19
1.746819982e-19
1.710812075e-19
1.675738643e-19
1.641574702e-19
1.608295932e-19
1.575878709e-19
1.544300046e-19
1.513537614e-19
1.483569643e-19
1.454375016e-19
1.425933151e-19
1.39822408e-19
1.371228339e-19
1.344927043e-19
1.319301784e-19
1.294334667e-19
1.270008276e-19
1.246305668e-19
1.223210393e-19
1.200706397e-19
1.178778105e-19
1.157410372e-19
1.136588416e-19
1.116297905e-19
1.09652485e-19
1.077255668e-19
1.058477129e-19
1.040176388e-19
1.022340922e-19
1.004958526e-19
9.880173496e-20
9.715058767e-20
9.554128613e-20
9.397273842e-20
9.244388225e-20
9.095368339e-20
8.950113243e-20
8.808525086e-20
8.67050836e-20
8.535970356e-20
8.404820769e-20
8.276971597e-20
8.152337144e-20
8.030834199e-20
7.912381547e-20
7.796900294e-20
7.684313417e-20
7.574546343e-20
7.467526087e-20
7.363181723e-20
7.261444248e-20
7.162246488e-20
7.065522968e-20
6.97121014e-20
6.87924566e-20
6.789569323e-20
6.702122282e-20
6.616847373e-20
6.533688818e-20
6.45259234e-20
6.37350496e-20
6.296375315e-20
6.221153407e-20
6.147790409e-20
6.0762386e-20
6.006451842e-20
5.938385052e-20
5.871994328e-20
5.807236991e-20
5.744071455e-20
5.682457169e-20
5.622354664e-20
5.563725367e-20
5.50653187e-20
5.450737791e-20
5.396307615e-20
5.343206499e-20
5.291401054e-20
5.240858225e-20
5.19154613e-20
5.143433589e-20
5.096490242e-20
5.050686606e-20
5.005993892e-20
4.962383976e-20
4.919829583e-20
4.878304082e-20
4.837781485e-20
4.798236648e-20
4.759645063e-20
4.721982639e-20
4.685226008e-20
4.649352462e-20
4.614339838e-20
4.580166529e-20
4.54681138e-20
4.514254069e-20
4.482474499e-20
4.451453205e-20
4.421171304e-20
4.391610296e-20
4.362752173e-20
4.334579326e-20
4.307074602e-20
4.280221377e-20
4.254003438e-20
4.228404979e-20
4.203410646e-20
4.179005442e-20
4.15517462e-20
4.131903823e-20
4.109179245e-20
4.086987248e-20
4.065314657e-20
4.044148604e-20
4.023476519e-20
4.003286237e-20
3.983565776e-20
3.964303474e-20
3.945487935e-20
3.927108182e-20
3.909153447e-20
3.891613207e-20
3.874477197e-20
3.857735475e-20
3.841378234e-20
3.825396056e-20
3.809779605e-20
3.794519882e-20
3.779607998e-20
3.765035379e-20
3.750793595e-20
3.736874451e-20
3.723269912e-20
3.709972312e-20
3.696973996e-20
3.684267493e-20
3.671845575e-20
3.65970114e-20
3.647827189e-20
3.636217062e-20
3.624864136e-20
3.613761911e-20
3.602904084e-20
3.592284466e-20
3.581897014e-20
3.571735771e-20
3.56179496e-20
3.552068928e-20
3.542552131e-20
3.53323918e-20
3.524124676e-20
3.515203427e-20
3.506470269e-20
3.497920205e-20
3.489548382e-20
3.481349881e-20
3.473319974e-20
3.465454077e-20
3.457747585e-20
3.450195991e-20
3.442794885e-20
3.435539965e-20
3.428426994e-20
3.421451722e-20
3.41461007e-20
3.407897977e-20
3.401311463e-20
3.394846579e-20
3.388499288e-20
3.382265637e-20
3.37614166e-20
3.370123218e-20
3.364206189e-20
3.316844476e-20
3.262587329e-20
3.222141227e-20
3.191839287e-20
3.169174211e-20
3.15242251e-20
3.140375223e-20
3.132173791e-20
3.127206657e-20
3.125037674e-20
3.125356234e-20
3.127941478e-20
3.132637289e-20
3.1393335e-20
3.147953292e-20
3.158442744e-20
3.170764802e-20
3.18489445e-20
3.200813999e-20
3.21851158e-20
3.237978203e-20
3.259206789e-20
3.282191201e-20
3.306924769e-20
3.333399659e-20
3.361606506e-20
3.391533535e-20
3.423166096e-20
3.45648609e-20
3.491471476e-20
3.528095711e-20
3.566327285e-20
3.606129154e-20
3.64745827e-20
3.690265122e-20
3.734493239e-20
3.780078875e-20
3.826950617e-20
3.87502913e-20
3.924226998e-20
3.974448663e-20
4.025590429e-20
4.077540698e-20
4.130180245e-20
4.183382672e-20
4.237015035e-20
4.290938554e-20
4.34500958e-20
4.399080486e-20
4.45300094e-20
4.506619072e-20
4.559782764e-20
4.612341125e-20
4.664145845e-20
4.715052597e-20
4.764922497e-20
4.813623426e-20
4.861031311e-20
4.907031371e-20
4.951519125e-20
4.99440144e-20
5.035597204e-20
5.075038077e-20
5.112668869e-20
5.148447878e-20
5.182346948e-20
5.214351409e-20
5.244459787e-20
5.27268337e-20
5.299045598e-20
5.323581283e-20
5.346335715e-20
5.367363617e-20
5.386728028e-20
5.404499083e-20
5.42075275e-20
5.435569542e-20
5.449033216e-20
5.461229498e-20
5.472244866e-20
5.482165397e-20
5.491075707e-20
5.499058004e-20
5.506191275e-20
5.512550602e-20
5.518206636e-20
5.523225209e-20
5.527667083e-20
5.531587871e-20
5.535038057e-20
5.53806315e-20
5.540703942e-20
5.542996841e-20
5.544974271e-20
5.546665124e-20
5.548095221e-20
5.549287793e-20
5.550263931e-20
5.551043018e-20
5.551643111e-20
5.552081265e-20
5.552373801e-20
5.552536502e-20
5.552584742e-20
5.552533555e-20
5.552397634e-20
5.55219129e-20
5.551928358e-20
5.551622076e-20
5.551284947e-20
5.550928582e-20
5.55056356e-20
5.550199295e-20
5.549843918e-20
5.549504207e-20
5.549185534e-20
5.548891859e-20
5.548625766e-20
5.548388529e-20
5.548180217e-20
5.547999829e-20
5.547845457e-20
5.547714456e-20
5.547603637e-20
5.54750945e-20
5.547428175e-20
5.547356086e-20
5.547289614e-20
5.547225473e-20
5.547160772e-20
5.547093091e-20
5.547020534e-20
5.54694175e-20
5.546855931e-20
5.546762784e-20
5.546662484e-20
5.546555613e-20
5.546443087e-20
5.546326071e-20
5.546205903e-20
5.546084007e-20
5.545961824e-20
5.54584074e-20
5.545722032e-20
5.545606824e-20
5.545496054e-20
5.545390459e-20
5.545290563e-20
5.545196683e-20
5.545108946e-20
5.545027302e-20
5.544951556e-20
5.544881397e-20
5.544816422e-20
5.544756174e-20
5.544700163e-20
5.544647895e-20
5.544598892e-20
5.544552706e-20
5.544508935e-20
5.544467228e-20
5.544427289e-20
5.544388877e-20
5.544351805e-20
5.544315934e-20
5.54428117e-20
5.544247456e-20
5.544214762e-20
5.544183089e-20
5.544152455e-20
5.544122894e-20
5.544094454e-20
5.544067192e-20
5.544041176e-20
5.544016481e-20
5.543993188e-20
5.543971384e-20
5.543951162e-20
5.543932618e-20
5.543915851e-20
5.543900958e-20
5.543888032e-20
5.543877162e-20
5.543868426e-20
5.543861888e-20
5.543857595e-20
5.543855575e-20
5.54385583e-20
5.543858341e-20
5.543863058e-20
5.543869904e-20
5.543878776e-20
5.543889541e-20
5.543902042e-20
5.543916097e-20
5.543931502e-20
5.543948038e-20
5.54396547e-20
5.543983553e-20
5.544002036e-20
5.544020665e-20
5.544039188e-20
5.544057361e-20
5.544074947e-20
5.544091722e-20
5.54410748e-20
5.544122029e-20
5.544135202e-20
5.544146852e-20
5.544156858e-20
5.544165119e-20
5.544171564e-20
5.544176143e-20
5.544178832e-20
5.544179629e-20
5.544178555e-20
5.544175652e-20
5.544170979e-20
5.544164613e-20
5.544156647e-20
5.544147182e-20
5.544136334e-20
5.544124224e-20
5.544110981e-20
5.544096737e-20
5.544081626e-20
5.544065784e-20
5.544049342e-20
5.544032434e-20
5.544015186e-20
5.543997723e-20
5.543980161e-20
5.543962613e-20
5.543945183e-20
5.543927969e-20
5.543911061e-20
5.54389454e-20
5.54387848e-20
5.543862945e-20
5.543847992e-20
5.54383367e-20
5.543820016e-20
5.543807063e-20
5.543794833e-20
5.543783345e-20
5.543772612e-20
5.543762662e-20
5.543753574e-20
5.543745612e-20
5.543739658e-20
)
;

boundaryField
{
    inlet
    {
        type            fixedValue;
        value           uniform 0;
    }
    outlet
    {
        type            zeroGradient;
    }
    wall
    {
        type            empty;
    }
}


// ************************************************************************* //
