/*--------------------------------*- C++ -*----------------------------------*\
  =========                 |
  \\      /  F ield         | OpenFOAM: The Open Source CFD Toolbox
   \\    /   O peration     | Website:  https://openfoam.org
    \\  /    A nd           | Version:  7
     \\/     M anipulation  |
\*---------------------------------------------------------------------------*/
FoamFile
{
    version     2.0;
    format      ascii;
    class       volScalarField;
    location    "0.000558243009";
    object      CH3O_0;
}
// * * * * * * * * * * * * * * * * * * * * * * * * * * * * * * * * * * * * * //

dimensions      [0 0 0 0 0 0 0];

internalField   nonuniform List<scalar> 
1500
(
9.156071689e-25
3.574101961e-24
7.415425683e-24
1.118285176e-23
1.400132854e-23
1.571754153e-23
1.660174529e-23
1.699702977e-23
1.715319274e-23
1.720853736e-23
1.722640754e-23
1.723180363e-23
1.723343546e-23
1.723402054e-23
1.723432203e-23
1.723453228e-23
1.723469563e-23
1.723482392e-23
1.723492366e-23
1.723500049e-23
1.7235059e-23
1.723510237e-23
1.723513255e-23
1.723515081e-23
1.723515831e-23
1.723515657e-23
1.723514758e-23
1.723513371e-23
1.723511747e-23
1.723510123e-23
1.723508699e-23
1.723507621e-23
1.723506981e-23
1.723506822e-23
1.723507146e-23
1.723507924e-23
1.723509108e-23
1.723510639e-23
1.723512447e-23
1.723514461e-23
1.723516609e-23
1.723518818e-23
1.723521021e-23
1.723523156e-23
1.723525173e-23
1.723527032e-23
1.723528708e-23
1.72353019e-23
1.723531479e-23
1.723532585e-23
1.723533528e-23
1.723534329e-23
1.723535012e-23
1.723535598e-23
1.723536105e-23
1.723536548e-23
1.723536933e-23
1.723537264e-23
1.72353754e-23
1.723537753e-23
1.723537895e-23
1.723537952e-23
1.723537913e-23
1.723537764e-23
1.72353749e-23
1.723537081e-23
1.723536526e-23
1.72353582e-23
1.72353496e-23
1.723533947e-23
1.723532789e-23
1.723531496e-23
1.723530087e-23
1.723528582e-23
1.723527007e-23
1.72352539e-23
1.723523765e-23
1.723522164e-23
1.723520621e-23
1.723519171e-23
1.723517846e-23
1.723516676e-23
1.723515689e-23
1.723514907e-23
1.723514349e-23
1.723514031e-23
1.72351396e-23
1.723514141e-23
1.723514572e-23
1.723515247e-23
1.723516155e-23
1.723517279e-23
1.723518601e-23
1.723520095e-23
1.723521735e-23
1.723523492e-23
1.723525334e-23
1.72352723e-23
1.723529147e-23
1.723531055e-23
1.723532922e-23
1.723534722e-23
1.723536431e-23
1.723538027e-23
1.723539494e-23
1.723540822e-23
1.723542002e-23
1.723543034e-23
1.72354392e-23
1.723544666e-23
1.723545283e-23
1.723545784e-23
1.723546183e-23
1.723546497e-23
1.723546742e-23
1.723546933e-23
1.723547084e-23
1.723547207e-23
1.723547313e-23
1.723547407e-23
1.723547495e-23
1.723547578e-23
1.723547657e-23
1.723547729e-23
1.723547791e-23
1.723547838e-23
1.723547867e-23
1.723547873e-23
1.72354785e-23
1.723547797e-23
1.72354771e-23
1.723547586e-23
1.723547425e-23
1.723547226e-23
1.723546987e-23
1.723546709e-23
1.72354639e-23
1.723546029e-23
1.723545624e-23
1.723545172e-23
1.723544671e-23
1.723544117e-23
1.723543506e-23
1.723542834e-23
1.723542097e-23
1.723541291e-23
1.723540414e-23
1.723539466e-23
1.723538445e-23
1.723537355e-23
1.723536198e-23
1.72353498e-23
1.723533708e-23
1.723532392e-23
1.723531041e-23
1.723529668e-23
1.723528284e-23
1.723526903e-23
1.723525538e-23
1.723524202e-23
1.723522907e-23
1.723521667e-23
1.723520493e-23
1.723519395e-23
1.723518384e-23
1.723517469e-23
1.723516658e-23
1.723515959e-23
1.72351538e-23
1.723514927e-23
1.723514607e-23
1.723514426e-23
1.723514389e-23
1.7235145e-23
1.723514762e-23
1.72351518e-23
1.723515752e-23
1.723516478e-23
1.723517355e-23
1.723518377e-23
1.723519536e-23
1.723520819e-23
1.723522212e-23
1.723523694e-23
1.723525245e-23
1.723526836e-23
1.723528437e-23
1.723530016e-23
1.723531537e-23
1.723532964e-23
1.723534259e-23
1.723535389e-23
1.723536323e-23
1.723537033e-23
1.7235375e-23
1.723537711e-23
1.72353766e-23
1.723537347e-23
1.723536781e-23
1.723535973e-23
1.723534936e-23
1.723533684e-23
1.723532231e-23
1.723530588e-23
1.723528764e-23
1.723526768e-23
1.723524612e-23
1.723522312e-23
1.723519899e-23
1.723517415e-23
1.723514922e-23
1.723512499e-23
1.723510245e-23
1.723508267e-23
1.723506671e-23
1.723505551e-23
1.72350497e-23
1.723504941e-23
1.723505412e-23
1.723506254e-23
1.72350725e-23
1.723508102e-23
1.723508447e-23
1.723507879e-23
1.723505991e-23
1.723502423e-23
1.723496917e-23
1.72348937e-23
1.723479884e-23
1.723468801e-23
1.723456712e-23
1.723444448e-23
1.723433027e-23
1.72342358e-23
1.723417232e-23
1.723414965e-23
1.723417472e-23
1.723424997e-23
1.72343722e-23
1.723453202e-23
1.723471476e-23
1.723490469e-23
1.723509585e-23
1.723531629e-23
1.72356751e-23
1.723644066e-23
1.723813699e-23
1.724157562e-23
1.724757193e-23
1.725577604e-23
1.725889879e-23
1.725977282e-23
1.726068402e-23
1.726163401e-23
1.726262413e-23
1.726365578e-23
1.726473056e-23
1.726585026e-23
1.726701684e-23
1.72682324e-23
1.726949917e-23
1.72708195e-23
1.727219588e-23
1.727363092e-23
1.727512738e-23
1.727668817e-23
1.727831634e-23
1.728001512e-23
1.728178791e-23
1.72836383e-23
1.728557008e-23
1.728758723e-23
1.728969395e-23
1.729189469e-23
1.729419413e-23
1.72965972e-23
1.729910911e-23
1.730173536e-23
1.730448176e-23
1.730735443e-23
1.731035982e-23
1.731350478e-23
1.731679649e-23
1.732024257e-23
1.732385104e-23
1.732763039e-23
1.733158955e-23
1.733573799e-23
1.734008568e-23
1.734464316e-23
1.734942155e-23
1.735443259e-23
1.735968869e-23
1.736520294e-23
1.737098915e-23
1.737706193e-23
1.738343665e-23
1.739012958e-23
1.739715786e-23
1.740453959e-23
1.741229388e-23
1.742044085e-23
1.742900178e-23
1.743799906e-23
1.744745634e-23
1.745739854e-23
1.746785194e-23
1.747884425e-23
1.749040465e-23
1.750256393e-23
1.751535449e-23
1.75288105e-23
1.754296791e-23
1.755786461e-23
1.757354049e-23
1.759003753e-23
1.760739993e-23
1.762567419e-23
1.764490925e-23
1.766515658e-23
1.768647032e-23
1.770890739e-23
1.773252764e-23
1.7757394e-23
1.778357258e-23
1.781113287e-23
1.784014786e-23
1.787069422e-23
1.79028525e-23
1.793670724e-23
1.797234723e-23
1.800986566e-23
1.804936034e-23
1.80909339e-23
1.813469404e-23
1.818075375e-23
1.822923154e-23
1.828025169e-23
1.833394456e-23
1.839044683e-23
1.84499018e-23
1.85124597e-23
1.857827801e-23
1.864752179e-23
1.872036405e-23
1.879698609e-23
1.887757793e-23
1.896233866e-23
1.905147693e-23
1.914521134e-23
1.924377097e-23
1.934739582e-23
1.945633738e-23
1.957085912e-23
1.969123715e-23
1.981776075e-23
1.995073303e-23
2.009047163e-23
2.02373094e-23
2.039159514e-23
2.055369441e-23
2.072399035e-23
2.090288451e-23
2.109079782e-23
2.128817152e-23
2.149546819e-23
2.17131728e-23
2.194179387e-23
2.218186458e-23
2.243394411e-23
2.269861886e-23
2.297650387e-23
2.326824428e-23
2.357451677e-23
2.389603126e-23
2.423353248e-23
2.45878018e-23
2.495965901e-23
2.53499643e-23
2.575962023e-23
2.618957386e-23
2.664081898e-23
2.711439837e-23
2.761140627e-23
2.813299082e-23
2.868035678e-23
2.925476818e-23
2.985755122e-23
3.049009721e-23
3.115386567e-23
3.185038752e-23
3.258126841e-23
3.334819216e-23
3.415292433e-23
3.499731593e-23
3.588330724e-23
3.681293175e-23
3.778832023e-23
3.881170497e-23
3.988542408e-23
4.101192596e-23
4.219377388e-23
4.343365069e-23
4.473436368e-23
4.609884946e-23
4.753017914e-23
4.90315634e-23
5.060635789e-23
5.225806862e-23
5.399035743e-23
5.58070477e-23
5.771213003e-23
5.970976808e-23
6.180430448e-23
6.400026689e-23
6.630237404e-23
6.871554194e-23
7.124489017e-23
7.389574819e-23
7.667366174e-23
7.958439938e-23
8.263395898e-23
8.582857442e-23
8.917472219e-23
9.267912824e-23
9.634877474e-23
1.00190907e-22
1.042130404e-22
1.084229676e-22
1.128287653e-22
1.174388021e-22
1.22261745e-22
1.273065675e-22
1.32582557e-22
1.380993223e-22
1.438668016e-22
1.498952707e-22
1.56195351e-22
1.62778018e-22
1.696546103e-22
1.768368386e-22
1.843367948e-22
1.92166962e-22
2.003402247e-22
2.088698793e-22
2.177696458e-22
2.270536787e-22
2.367365803e-22
2.468334135e-22
2.573597159e-22
2.683315145e-22
2.797653418e-22
2.916782527e-22
3.040878424e-22
3.170122663e-22
3.304702602e-22
3.444811632e-22
3.590649417e-22
3.742422149e-22
3.90034283e-22
4.064631573e-22
4.235515921e-22
4.413231198e-22
4.598020882e-22
4.790137012e-22
4.989840622e-22
5.197402208e-22
5.413102236e-22
5.637231684e-22
5.870092628e-22
6.11199887e-22
6.363276619e-22
6.624265214e-22
6.895317913e-22
7.176802728e-22
7.46910333e-22
7.772620019e-22
8.087770764e-22
8.414992317e-22
8.75474141e-22
9.107496039e-22
9.473756832e-22
9.854048527e-22
1.024892154e-21
1.065895367e-21
1.108475187e-21
1.152695421e-21
1.198623192e-21
1.246329164e-21
1.295887772e-21
1.347377479e-21
1.400881046e-21
1.456485819e-21
1.51428404e-21
1.574373173e-21
1.63685626e-21
1.701842298e-21
1.76944664e-21
1.839791427e-21
1.913006045e-21
1.989227624e-21
2.068601558e-21
2.15128207e-21
2.237432811e-21
2.327227508e-21
2.420850648e-21
2.518498215e-21
2.620378478e-21
2.726712837e-21
2.837736726e-21
2.953700583e-21
3.074870886e-21
3.201531267e-21
3.333983679e-21
3.472550078e-21
3.617573463e-21
3.769419306e-21
3.928477425e-21
4.095163383e-21
4.26992039e-21
4.453221327e-21
4.645570857e-21
4.847507688e-21
5.059607014e-21
5.282483142e-21
5.516792347e-21
5.763235965e-21
6.022563642e-21
6.295576716e-21
6.583132945e-21
6.886150036e-21
7.205610274e-21
7.54256553e-21
7.898143269e-21
8.273552464e-21
8.670089562e-21
9.089145458e-21
9.532213234e-21
1.000089661e-20
1.049691921e-20
1.102213476e-20
1.157853837e-20
1.216827894e-20
1.27936731e-20
1.345722049e-20
1.416162107e-20
1.490979434e-20
1.570490097e-20
1.655036731e-20
1.744991297e-20
1.840758228e-20
1.942778015e-20
2.051531305e-20
2.167543624e-20
2.291390816e-20
2.42370535e-20
2.565183657e-20
2.716594693e-20
2.878789977e-20
3.05271541e-20
3.239425232e-20
3.440098574e-20
3.656059159e-20
3.888798848e-20
4.140005871e-20
4.411598814e-20
4.705767684e-20
5.025023709e-20
5.372259966e-20
5.750825463e-20
6.164616011e-20
6.618186126e-20
7.116887375e-20
7.667040092e-20
8.276147379e-20
8.953162919e-20
9.708827497e-20
1.055609366e-19
1.151066383e-19
1.259167508e-19
1.38225742e-19
1.523224049e-19
1.685643252e-19
1.873965954e-19
2.093761177e-19
2.352032843e-19
2.657634227e-19
3.021812059e-19
3.45892317e-19
3.987381356e-19
4.630912056e-19
5.420219488e-19
6.395207439e-19
7.60794458e-19
9.126632482e-19
1.104092597e-18
1.346907974e-18
1.656756388e-18
2.054402101e-18
2.567474954e-18
3.23283236e-18
4.099753814e-18
5.234265658e-18
6.725001106e-18
8.69114676e-18
1.129322598e-17
1.474774081e-17
1.934706376e-17
2.548647465e-17
3.370092383e-17
4.471503855e-17
5.951116371e-17
7.942196453e-17
1.062564849e-16
1.424717782e-16
1.914066193e-16
2.575997866e-16
3.472235502e-16
4.686740957e-16
6.333757144e-16
8.568761528e-16
1.160338493e-15
1.572573006e-15
2.132804208e-15
2.894438776e-15
3.930195695e-15
5.33909014e-15
7.255939291e-15
9.864298258e-15
1.341405996e-14
1.824539459e-14
2.482130318e-14
3.377187129e-14
4.595440739e-14
6.253513698e-14
8.510013261e-14
1.158058738e-13
1.575834914e-13
2.14415686e-13
2.917119499e-13
3.96816651e-13
5.396965179e-13
7.338701206e-13
9.976634161e-13
1.355904086e-12
1.842205563e-12
2.502042328e-12
3.396885215e-12
4.609754089e-12
6.25266186e-12
8.476576569e-12
1.14847275e-11
1.555033968e-11
2.10402146e-11
2.844600168e-11
3.842554818e-11
5.185739846e-11
6.991236632e-11
9.414715336e-11
1.266262608e-10
1.700799618e-10
2.281078761e-10
3.054397085e-10
4.082669303e-10
5.446615138e-10
7.251001192e-10
9.631141539e-10
1.276087562e-09
1.686224658e-09
2.22170934e-09
2.918074123e-09
3.819792274e-09
4.982098829e-09
6.473036759e-09
8.375714284e-09
1.079075054e-08
1.383888309e-08
1.766371753e-08
2.24346233e-08
2.834982884e-08
3.563985297e-08
4.457153533e-08
5.545310551e-08
6.864096131e-08
8.454911102e-08
1.036625623e-07
1.265562891e-07
1.539217344e-07
1.866030374e-07
2.256452078e-07
2.723561e-07
3.283831648e-07
3.958041769e-07
4.77228456e-07
5.759014734e-07
6.958019456e-07
8.417181954e-07
1.019222679e-06
1.234974175e-06
1.495752816e-06
1.810861176e-06
2.188445557e-06
2.636278865e-06
3.148769193e-06
3.725321173e-06
4.343995339e-06
4.953936133e-06
5.466845332e-06
5.765084596e-06
5.747891552e-06
5.392574324e-06
4.783182399e-06
4.060164466e-06
3.351007107e-06
2.726804708e-06
2.231479916e-06
1.852328885e-06
1.568903979e-06
1.356411564e-06
1.197516334e-06
1.074112105e-06
9.749416556e-07
8.950265757e-07
8.279268246e-07
7.691407284e-07
7.157299867e-07
6.658257787e-07
6.182736277e-07
5.723206085e-07
5.27334156e-07
4.832248011e-07
4.395570245e-07
3.966991036e-07
3.54827292e-07
3.144367082e-07
2.760847507e-07
2.402870849e-07
2.072832987e-07
1.772691581e-07
1.505710488e-07
1.271401548e-07
1.068167734e-07
8.936942023e-08
7.451605332e-08
6.196403708e-08
5.141826839e-08
4.259016837e-08
3.529747767e-08
2.922397848e-08
2.414958052e-08
1.995023023e-08
1.647835996e-08
1.360987706e-08
1.124114048e-08
9.285881711e-09
7.672932432e-09
6.341836398e-09
5.24378625e-09
4.337953982e-09
3.59058789e-09
2.973818678e-09
2.464657418e-09
2.044156419e-09
1.696708612e-09
1.40946433e-09
1.171847148e-09
9.751529148e-10
8.122183972e-10
6.771478802e-10
5.650879004e-10
4.720418386e-10
3.947174443e-10
3.304015201e-10
2.768569709e-10
2.322382491e-10
1.950219177e-10
1.63949628e-10
1.379812885e-10
1.162565963e-10
9.806342935e-11
8.281186727e-11
7.001283019e-11
5.926050677e-11
5.021789196e-11
4.260487788e-11
3.618844132e-11
3.077455374e-11
2.620150716e-11
2.233440429e-11
1.906060663e-11
1.628597126e-11
1.393173728e-11
1.193194773e-11
1.02313133e-11
8.783440529e-12
7.549361213e-12
6.496310714e-12
5.596712197e-12
4.827331339e-12
4.168572275e-12
3.603890663e-12
3.119303934e-12
2.702982266e-12
2.344906662e-12
2.03658285e-12
1.77080167e-12
1.541438208e-12
1.343283247e-12
1.171901698e-12
1.023513584e-12
8.948938837e-13
7.832881642e-13
6.86341445e-13
6.020381615e-13
5.286514435e-13
4.64700224e-13
4.089129326e-13
3.601967319e-13
3.176114269e-13
2.80347314e-13
2.477063571e-13
2.190861751e-13
1.939664077e-13
1.71897095e-13
1.524887633e-13
1.354039584e-13
1.203500089e-13
1.070728335e-13
9.535163734e-14
8.49943654e-14
7.583380056e-14
6.772421238e-14
6.053847573e-14
5.416559106e-14
4.850854852e-14
4.348248625e-14
3.9013101e-14
3.503527525e-14
3.149189009e-14
2.833279796e-14
2.551393275e-14
2.299653832e-14
2.074649898e-14
1.873375799e-14
1.693181204e-14
1.531727141e-14
1.386947687e-14
1.257016583e-14
1.140318105e-14
1.03542163e-14
9.410594153e-15
8.561071535e-15
7.795669625e-15
7.10552476e-15
6.482757739e-15
5.920359122e-15
5.412088504e-15
4.952385975e-15
4.536294247e-15
4.159390093e-15
3.817723942e-15
3.507766626e-15
3.226362388e-15
2.970687384e-15
2.738213012e-15
2.52667348e-15
2.334037109e-15
2.158480905e-15
1.998368032e-15
1.852227829e-15
1.718738069e-15
1.596709206e-15
1.485070374e-15
1.382856928e-15
1.28919936e-15
1.203313427e-15
1.124491347e-15
1.052093955e-15
9.855436969e-16
9.243183752e-16
8.679455594e-16
8.159975894e-16
7.680871034e-16
7.238630341e-16
6.830070231e-16
6.452302062e-16
6.102703296e-16
5.778891622e-16
5.47870172e-16
5.200164377e-16
4.941487718e-16
4.701040317e-16
4.477335996e-16
4.269020133e-16
4.074857335e-16
3.893720308e-16
3.724579829e-16
3.566495693e-16
3.418608531e-16
3.280132425e-16
3.150348232e-16
3.028597535e-16
2.914277185e-16
2.806834346e-16
2.705762014e-16
2.610594958e-16
2.520906026e-16
2.436302814e-16
2.356424626e-16
2.280939718e-16
2.209542803e-16
2.141952772e-16
2.077910623e-16
2.017177589e-16
1.959533416e-16
1.904774809e-16
1.85271401e-16
1.803177504e-16
1.756004842e-16
1.711047556e-16
1.668168186e-16
1.627239376e-16
1.58814306e-16
1.550769709e-16
1.515017651e-16
1.48079244e-16
1.448006289e-16
1.416577539e-16
1.386430188e-16
1.357493443e-16
1.329701321e-16
1.30299228e-16
1.277308878e-16
1.252597464e-16
1.228807889e-16
1.205893248e-16
1.183809637e-16
1.162515931e-16
1.141973582e-16
1.12214643e-16
1.103000531e-16
1.084503998e-16
1.066626854e-16
1.0493409e-16
1.032619587e-16
1.016437901e-16
1.000772263e-16
9.856004239e-17
9.709013773e-17
9.566552771e-17
9.42843359e-17
9.294478684e-17
9.16451996e-17
9.03839815e-17
8.915962253e-17
8.79706901e-17
8.681582407e-17
8.569373233e-17
8.460318654e-17
8.354301823e-17
8.251211526e-17
8.150941828e-17
8.053391779e-17
7.958465101e-17
7.866069937e-17
7.776118582e-17
7.688527253e-17
7.60321587e-17
7.520107846e-17
7.439129898e-17
7.360211867e-17
7.283286545e-17
7.208289526e-17
7.135159056e-17
7.063835894e-17
6.994263181e-17
6.926386324e-17
6.860152876e-17
6.795512433e-17
6.732416535e-17
6.67081857e-17
6.610673687e-17
6.551938708e-17
6.494572056e-17
6.438533674e-17
6.383784956e-17
6.330288686e-17
6.278008972e-17
6.226911194e-17
6.176961937e-17
6.128128946e-17
6.080381073e-17
6.033688234e-17
5.98802136e-17
5.943352355e-17
5.899654058e-17
5.856900205e-17
5.815065393e-17
5.774125045e-17
5.734055374e-17
5.694833356e-17
5.656436701e-17
5.618843819e-17
5.582033801e-17
5.545986389e-17
5.510681949e-17
5.476101454e-17
5.442226459e-17
5.409039078e-17
5.376521965e-17
5.344658294e-17
5.313431746e-17
5.282826479e-17
5.252827124e-17
5.223418762e-17
5.194586908e-17
5.166317498e-17
5.138596876e-17
5.111411778e-17
5.084749319e-17
5.058596979e-17
5.032942594e-17
5.007774344e-17
4.98308074e-17
4.95885061e-17
4.935073098e-17
4.911737645e-17
4.888833984e-17
4.866352129e-17
4.844282367e-17
4.822615249e-17
4.801341584e-17
4.780452422e-17
4.759939062e-17
4.739793031e-17
4.720006082e-17
4.700570186e-17
4.681477528e-17
4.662720497e-17
4.644291683e-17
4.626183869e-17
4.608390026e-17
4.590903306e-17
4.573717038e-17
4.556824722e-17
4.540220029e-17
4.523896784e-17
4.507848977e-17
4.492070746e-17
4.476556376e-17
4.461300298e-17
4.446297082e-17
4.431541434e-17
4.417028192e-17
4.402752322e-17
4.388708913e-17
4.374893178e-17
4.361300442e-17
4.347926151e-17
4.334765857e-17
4.321815223e-17
4.309070016e-17
4.296526105e-17
4.284179458e-17
4.27202614e-17
4.26006231e-17
4.248284218e-17
4.236688203e-17
4.225270692e-17
4.214028195e-17
4.202957304e-17
4.192054689e-17
4.181317101e-17
4.170741364e-17
4.160324376e-17
4.150063107e-17
4.139954598e-17
4.129995956e-17
4.120184353e-17
4.110517028e-17
4.100991282e-17
4.091604476e-17
4.082354032e-17
4.073237427e-17
4.064252197e-17
4.055395934e-17
4.046666281e-17
4.038060935e-17
4.029577642e-17
4.021214199e-17
4.012968452e-17
4.004838291e-17
3.996821656e-17
3.988916529e-17
3.981120938e-17
3.97343295e-17
3.965850679e-17
3.958372273e-17
3.950995925e-17
3.943719863e-17
3.936542353e-17
3.929461699e-17
3.92247624e-17
3.91558435e-17
3.908784437e-17
3.902074942e-17
3.895454338e-17
3.888921132e-17
3.882473859e-17
3.876111085e-17
3.869831407e-17
3.863633447e-17
3.85751586e-17
3.851477325e-17
3.845516547e-17
3.83963226e-17
3.833823221e-17
3.828088215e-17
3.822426048e-17
3.816835551e-17
3.811315579e-17
3.805865008e-17
3.800482736e-17
3.795167686e-17
3.789918799e-17
3.784735037e-17
3.779615383e-17
3.77455884e-17
3.769564429e-17
3.76463119e-17
3.759758184e-17
3.754944486e-17
3.750189192e-17
3.745491414e-17
3.74085028e-17
3.736264936e-17
3.731734542e-17
3.727258277e-17
3.722835332e-17
3.718464916e-17
3.714146251e-17
3.709878573e-17
3.705661134e-17
3.701493198e-17
3.697374043e-17
3.693302962e-17
3.689279258e-17
3.685302251e-17
3.681371267e-17
3.67748565e-17
3.673644754e-17
3.669847943e-17
3.666094595e-17
3.662384097e-17
3.658715849e-17
3.655089259e-17
3.651503748e-17
3.647958747e-17
3.644453696e-17
3.640988045e-17
3.637561254e-17
3.634172792e-17
3.630822139e-17
3.627508781e-17
3.624232217e-17
3.62099195e-17
3.617787495e-17
3.614618374e-17
3.611484117e-17
3.608384264e-17
3.60531836e-17
3.602285959e-17
3.599286624e-17
3.596319924e-17
3.593385434e-17
3.590482738e-17
3.587611427e-17
3.584771098e-17
3.581961354e-17
3.579181806e-17
3.576432071e-17
3.573711773e-17
3.57102054e-17
3.568358008e-17
3.565723819e-17
3.56311762e-17
3.560539063e-17
3.557987807e-17
3.555463515e-17
3.552965858e-17
3.550494508e-17
3.548049147e-17
3.545629459e-17
3.543235132e-17
3.540865862e-17
3.538521346e-17
3.53620129e-17
3.5339054e-17
3.53163339e-17
3.529384975e-17
3.527159878e-17
3.524957822e-17
3.522778538e-17
3.520621757e-17
3.518487217e-17
3.516374658e-17
3.514283825e-17
3.512214464e-17
3.510166327e-17
3.508139169e-17
3.506132747e-17
3.504146821e-17
3.502181158e-17
3.500235522e-17
3.498309684e-17
3.496403418e-17
3.494516498e-17
3.492648702e-17
3.490799812e-17
3.48896961e-17
3.487157883e-17
3.485364417e-17
3.483589004e-17
3.481831435e-17
3.480091505e-17
3.478369009e-17
3.476663744e-17
3.474975509e-17
3.473304104e-17
3.471649328e-17
3.470010982e-17
3.468388866e-17
3.466782778e-17
3.465192515e-17
3.463617869e-17
3.46205863e-17
3.46051458e-17
3.458985492e-17
3.457471129e-17
3.455971239e-17
3.454485552e-17
3.453013769e-17
3.451555563e-17
3.450110554e-17
3.448678312e-17
3.447258295e-17
3.445849865e-17
3.444452195e-17
3.443064135e-17
3.441684156e-17
3.430506909e-17
3.414631725e-17
3.40136642e-17
3.39067496e-17
3.382454058e-17
3.376630628e-17
3.373154939e-17
3.371996103e-17
3.373138524e-17
3.376579169e-17
3.382325483e-17
3.390393734e-17
3.400807653e-17
3.413597345e-17
3.428798352e-17
3.446450868e-17
3.466599055e-17
3.489290437e-17
3.51457534e-17
3.542506385e-17
3.573137971e-17
3.606525776e-17
3.642726231e-17
3.681795955e-17
3.723791159e-17
3.768766973e-17
3.816776714e-17
3.867871065e-17
3.92209718e-17
3.97949768e-17
4.040109568e-17
4.10396304e-17
4.171080209e-17
4.241473742e-17
4.315145422e-17
4.392084656e-17
4.472266955e-17
4.555652384e-17
4.642184039e-17
4.731786581e-17
4.824364864e-17
4.919802686e-17
5.017961725e-17
5.11868071e-17
5.221774848e-17
5.32703558e-17
5.434230703e-17
5.543104876e-17
5.653380563e-17
5.764759419e-17
5.876924154e-17
5.98954082e-17
6.102261592e-17
6.214727914e-17
6.32657405e-17
6.437430944e-17
6.546930312e-17
6.654708924e-17
6.76041294e-17
6.863702225e-17
6.964254577e-17
7.061769678e-17
7.155972769e-17
7.246617914e-17
7.33349077e-17
7.416410795e-17
7.495232877e-17
7.569848294e-17
7.640185066e-17
7.706207618e-17
7.767915829e-17
7.825343499e-17
7.878556284e-17
7.927649148e-17
7.972743449e-17
8.013983713e-17
8.05153419e-17
8.085575299e-17
8.116300033e-17
8.143910417e-17
8.168614093e-17
8.190621103e-17
8.210140922e-17
8.227379788e-17
8.242538367e-17
8.255809776e-17
8.267377961e-17
8.277416447e-17
8.286087433e-17
8.293541231e-17
8.299916003e-17
8.305337779e-17
8.309920711e-17
8.313767531e-17
8.316970164e-17
8.319610468e-17
8.321761049e-17
8.323486126e-17
8.324842403e-17
8.325879936e-17
8.326642947e-17
8.327170586e-17
8.327497618e-17
8.327655026e-17
8.327670525e-17
8.327568992e-17
8.327372804e-17
8.32710211e-17
8.326775019e-17
8.326407744e-17
8.326014692e-17
8.325608528e-17
8.32520021e-17
8.324799022e-17
8.324412602e-17
8.324046987e-17
8.323706667e-17
8.323394658e-17
8.323112607e-17
8.322860906e-17
8.322638842e-17
8.322444749e-17
8.322276191e-17
8.322130134e-17
8.322003138e-17
8.321891531e-17
8.321791584e-17
8.321699664e-17
8.32161237e-17
8.321526644e-17
8.321439864e-17
8.321349896e-17
8.321255135e-17
8.321154507e-17
8.321047456e-17
8.320933908e-17
8.320814217e-17
8.320689098e-17
8.320559551e-17
8.320426786e-17
8.32029214e-17
8.320157004e-17
8.320022751e-17
8.319890676e-17
8.319761949e-17
8.319637577e-17
8.319518376e-17
8.319404963e-17
8.319297748e-17
8.319196948e-17
8.319102597e-17
8.319014572e-17
8.318932618e-17
8.318856378e-17
8.31878542e-17
8.318719267e-17
8.318657423e-17
8.318599393e-17
8.318544706e-17
8.318492927e-17
8.318443667e-17
8.318396588e-17
8.31835141e-17
8.318307906e-17
8.318265903e-17
8.318225273e-17
8.318185932e-17
8.318147833e-17
8.31811096e-17
8.31807532e-17
8.318040945e-17
8.318007881e-17
8.31797619e-17
8.317945944e-17
8.317917227e-17
8.31789013e-17
8.31786475e-17
8.317841191e-17
8.317819559e-17
8.317799961e-17
8.317782503e-17
8.317767286e-17
8.317754404e-17
8.317743939e-17
8.317735956e-17
8.317730503e-17
8.317727605e-17
8.31772726e-17
8.317729441e-17
8.317734087e-17
8.31774111e-17
8.31775039e-17
8.317761776e-17
8.317775088e-17
8.317790122e-17
8.317806647e-17
8.317824416e-17
8.317843162e-17
8.31786261e-17
8.317882476e-17
8.317902473e-17
8.317922317e-17
8.31794173e-17
8.317960446e-17
8.31797821e-17
8.317994788e-17
8.318009966e-17
8.318023552e-17
8.318035382e-17
8.318045318e-17
8.318053248e-17
8.318059091e-17
8.318062794e-17
8.318064331e-17
8.318063703e-17
8.318060936e-17
8.318056081e-17
8.318049211e-17
8.318040416e-17
8.318029807e-17
8.318017505e-17
8.318003648e-17
8.31798838e-17
8.317971853e-17
8.317954225e-17
8.317935656e-17
8.317916306e-17
8.317896335e-17
8.317875901e-17
8.317855156e-17
8.317834247e-17
8.317813317e-17
8.317792499e-17
8.317771918e-17
8.317751691e-17
8.317731927e-17
8.317712724e-17
8.317694169e-17
8.317676339e-17
8.317659303e-17
8.317643116e-17
8.317627826e-17
8.317613468e-17
8.317600069e-17
8.317587649e-17
8.317576226e-17
8.317565835e-17
8.317556582e-17
8.317548808e-17
8.31754352e-17
)
;

boundaryField
{
    inlet
    {
        type            fixedValue;
        value           uniform 0;
    }
    outlet
    {
        type            zeroGradient;
    }
    wall
    {
        type            empty;
    }
}


// ************************************************************************* //
