/*--------------------------------*- C++ -*----------------------------------*\
  =========                 |
  \\      /  F ield         | OpenFOAM: The Open Source CFD Toolbox
   \\    /   O peration     | Website:  https://openfoam.org
    \\  /    A nd           | Version:  7
     \\/     M anipulation  |
\*---------------------------------------------------------------------------*/
FoamFile
{
    version     2.0;
    format      ascii;
    class       volScalarField;
    location    "0.000558243009";
    object      CH4;
}
// * * * * * * * * * * * * * * * * * * * * * * * * * * * * * * * * * * * * * //

dimensions      [0 0 0 0 0 0 0];

internalField   nonuniform List<scalar> 
1500
(
7.090548978e-12
2.779437895e-11
5.75050874e-11
8.690248189e-11
1.093462047e-10
1.234264399e-10
1.309574025e-10
1.344719069e-10
1.359266257e-10
1.364676751e-10
1.366504668e-10
1.367070841e-10
1.367232885e-10
1.36727603e-10
1.367286779e-10
1.367289297e-10
1.367289854e-10
1.367289971e-10
1.367289995e-10
1.367289999e-10
1.36729e-10
1.36729e-10
1.36729e-10
1.36729e-10
1.36729e-10
1.36729e-10
1.36729e-10
1.36729e-10
1.36729e-10
1.36729e-10
1.36729e-10
1.36729e-10
1.36729e-10
1.36729e-10
1.36729e-10
1.36729e-10
1.36729e-10
1.36729e-10
1.36729e-10
1.36729e-10
1.36729e-10
1.36729e-10
1.36729e-10
1.36729e-10
1.36729e-10
1.36729e-10
1.36729e-10
1.36729e-10
1.36729e-10
1.36729e-10
1.36729e-10
1.36729e-10
1.36729e-10
1.36729e-10
1.36729e-10
1.36729e-10
1.36729e-10
1.36729e-10
1.36729e-10
1.36729e-10
1.36729e-10
1.36729e-10
1.36729e-10
1.36729e-10
1.36729e-10
1.36729e-10
1.36729e-10
1.36729e-10
1.36729e-10
1.36729e-10
1.36729e-10
1.36729e-10
1.36729e-10
1.36729e-10
1.36729e-10
1.36729e-10
1.36729e-10
1.36729e-10
1.36729e-10
1.36729e-10
1.36729e-10
1.36729e-10
1.36729e-10
1.36729e-10
1.36729e-10
1.36729e-10
1.36729e-10
1.36729e-10
1.36729e-10
1.36729e-10
1.36729e-10
1.36729e-10
1.36729e-10
1.36729e-10
1.36729e-10
1.36729e-10
1.36729e-10
1.36729e-10
1.36729e-10
1.36729e-10
1.36729e-10
1.36729e-10
1.36729e-10
1.36729e-10
1.36729e-10
1.36729e-10
1.36729e-10
1.36729e-10
1.36729e-10
1.36729e-10
1.36729e-10
1.36729e-10
1.36729e-10
1.36729e-10
1.36729e-10
1.36729e-10
1.36729e-10
1.36729e-10
1.36729e-10
1.36729e-10
1.36729e-10
1.36729e-10
1.36729e-10
1.36729e-10
1.36729e-10
1.36729e-10
1.36729e-10
1.36729e-10
1.36729e-10
1.36729e-10
1.36729e-10
1.36729e-10
1.36729e-10
1.36729e-10
1.36729e-10
1.36729e-10
1.36729e-10
1.36729e-10
1.36729e-10
1.36729e-10
1.36729e-10
1.36729e-10
1.36729e-10
1.36729e-10
1.36729e-10
1.36729e-10
1.36729e-10
1.36729e-10
1.36729e-10
1.36729e-10
1.36729e-10
1.36729e-10
1.36729e-10
1.36729e-10
1.36729e-10
1.36729e-10
1.36729e-10
1.36729e-10
1.36729e-10
1.36729e-10
1.36729e-10
1.36729e-10
1.36729e-10
1.36729e-10
1.36729e-10
1.36729e-10
1.36729e-10
1.36729e-10
1.36729e-10
1.36729e-10
1.36729e-10
1.36729e-10
1.36729e-10
1.36729e-10
1.36729e-10
1.36729e-10
1.36729e-10
1.36729e-10
1.36729e-10
1.36729e-10
1.36729e-10
1.36729e-10
1.36729e-10
1.36729e-10
1.36729e-10
1.36729e-10
1.36729e-10
1.36729e-10
1.36729e-10
1.36729e-10
1.36729e-10
1.36729e-10
1.36729e-10
1.36729e-10
1.36729e-10
1.36729e-10
1.36729e-10
1.36729e-10
1.36729e-10
1.36729e-10
1.36729e-10
1.36729e-10
1.36729e-10
1.36729e-10
1.36729e-10
1.36729e-10
1.36729e-10
1.36729e-10
1.36729e-10
1.36729e-10
1.36729e-10
1.36729e-10
1.36729e-10
1.36729e-10
1.36729e-10
1.36729e-10
1.36729e-10
1.36729e-10
1.36729e-10
1.36729e-10
1.36729e-10
1.36729e-10
1.36729e-10
1.36729e-10
1.36729e-10
1.36729e-10
1.36729e-10
1.36729e-10
1.36729e-10
1.36729e-10
1.36729e-10
1.36729e-10
1.36729e-10
1.367290002e-10
1.367290007e-10
1.367290022e-10
1.367290069e-10
1.36729021e-10
1.367290607e-10
1.367291676e-10
1.367294418e-10
1.367301104e-10
1.36731658e-10
1.367350505e-10
1.367420727e-10
1.367557339e-10
1.367805346e-10
1.368220457e-10
1.368846671e-10
1.369655918e-10
1.370064679e-10
1.370160268e-10
1.370259635e-10
1.370363002e-10
1.370470556e-10
1.370582476e-10
1.370698945e-10
1.370820159e-10
1.370946326e-10
1.371077668e-10
1.371214417e-10
1.371356821e-10
1.371505136e-10
1.371659633e-10
1.371820591e-10
1.371988307e-10
1.372163087e-10
1.372345254e-10
1.372535143e-10
1.372733107e-10
1.372939512e-10
1.373154743e-10
1.3733792e-10
1.373613303e-10
1.37385749e-10
1.374112218e-10
1.374377964e-10
1.374655227e-10
1.374944527e-10
1.375246407e-10
1.375561433e-10
1.375890197e-10
1.376233314e-10
1.376591428e-10
1.376965208e-10
1.377355353e-10
1.377762589e-10
1.378187676e-10
1.378631402e-10
1.37909459e-10
1.379578096e-10
1.38008281e-10
1.38060966e-10
1.38115961e-10
1.381733663e-10
1.382332862e-10
1.382958292e-10
1.383611079e-10
1.384292395e-10
1.385003456e-10
1.385745525e-10
1.386519914e-10
1.387327985e-10
1.388171149e-10
1.389050873e-10
1.389968676e-10
1.390926135e-10
1.391924883e-10
1.392966613e-10
1.39405308e-10
1.395186099e-10
1.396367552e-10
1.397599386e-10
1.398883616e-10
1.400222326e-10
1.401617671e-10
1.403071882e-10
1.404587262e-10
1.406166193e-10
1.407811133e-10
1.409524623e-10
1.411309286e-10
1.413167828e-10
1.415103043e-10
1.417117812e-10
1.419215106e-10
1.421397986e-10
1.423669611e-10
1.426033233e-10
1.428492199e-10
1.43104996e-10
1.433710065e-10
1.436476168e-10
1.439352026e-10
1.442341503e-10
1.445448572e-10
1.448677316e-10
1.452031931e-10
1.455516724e-10
1.45913612e-10
1.46289466e-10
1.466797003e-10
1.470847929e-10
1.475052339e-10
1.479415259e-10
1.483941838e-10
1.488637352e-10
1.493507203e-10
1.498556924e-10
1.503792177e-10
1.509218756e-10
1.514842586e-10
1.520669727e-10
1.526706373e-10
1.532958853e-10
1.539433633e-10
1.546137316e-10
1.553076643e-10
1.560258495e-10
1.567689889e-10
1.575377985e-10
1.583330081e-10
1.591553618e-10
1.600056175e-10
1.608845474e-10
1.617929378e-10
1.627315891e-10
1.637013159e-10
1.647029467e-10
1.657373244e-10
1.668053057e-10
1.679077616e-10
1.690455768e-10
1.702196501e-10
1.714308943e-10
1.726802358e-10
1.739686148e-10
1.752969853e-10
1.766663147e-10
1.780775841e-10
1.795317879e-10
1.810299336e-10
1.825730421e-10
1.841621475e-10
1.857982965e-10
1.874825488e-10
1.89215977e-10
1.909996659e-10
1.928347131e-10
1.947222284e-10
1.966633338e-10
1.986591634e-10
2.007108631e-10
2.02819591e-10
2.049865166e-10
2.07212821e-10
2.094996969e-10
2.118483485e-10
2.142599909e-10
2.167358509e-10
2.19277166e-10
2.218851851e-10
2.245611679e-10
2.273063851e-10
2.301221185e-10
2.330096606e-10
2.359703152e-10
2.390053969e-10
2.421162313e-10
2.453041553e-10
2.485705169e-10
2.519166756e-10
2.553440023e-10
2.5885388e-10
2.624477031e-10
2.661268786e-10
2.698928259e-10
2.737469774e-10
2.776907785e-10
2.817256883e-10
2.858531802e-10
2.90074742e-10
2.943918769e-10
2.988061037e-10
3.033189579e-10
3.079319919e-10
3.126467763e-10
3.174649007e-10
3.22387974e-10
3.274176261e-10
3.325555088e-10
3.378032966e-10
3.43162688e-10
3.486354072e-10
3.542232048e-10
3.599278597e-10
3.657511806e-10
3.716950072e-10
3.777612125e-10
3.83951704e-10
3.902684263e-10
3.967133622e-10
4.032885357e-10
4.099960137e-10
4.168379083e-10
4.238163795e-10
4.309336375e-10
4.381919456e-10
4.455936227e-10
4.531410466e-10
4.608366568e-10
4.686829574e-10
4.766825213e-10
4.848379927e-10
4.931520913e-10
5.016276158e-10
5.10267448e-10
5.190745567e-10
5.280520019e-10
5.372029395e-10
5.465306255e-10
5.56038421e-10
5.657297969e-10
5.756083394e-10
5.856777547e-10
5.959418752e-10
6.064046644e-10
6.170702237e-10
6.279427978e-10
6.390267814e-10
6.503267258e-10
6.618473453e-10
6.735935248e-10
6.85570327e-10
6.977829995e-10
7.102369833e-10
7.229379206e-10
7.358916631e-10
7.491042811e-10
7.625820723e-10
7.763315711e-10
7.903595587e-10
8.046730731e-10
8.192794193e-10
8.341861805e-10
8.494012293e-10
8.649327399e-10
8.807891996e-10
8.969794221e-10
9.135125609e-10
9.303981227e-10
9.476459825e-10
9.65266398e-10
9.832700262e-10
1.001667939e-09
1.020471643e-09
1.039693093e-09
1.059344715e-09
1.079439428e-09
1.099990658e-09
1.121012368e-09
1.142519078e-09
1.16452589e-09
1.187048514e-09
1.210103299e-09
1.233707257e-09
1.257878103e-09
1.282634279e-09
1.307994998e-09
1.333980281e-09
1.360610993e-09
1.387908895e-09
1.415896688e-09
1.44459806e-09
1.474037748e-09
1.504241598e-09
1.535236617e-09
1.567051053e-09
1.599714465e-09
1.633257804e-09
1.667713504e-09
1.703115579e-09
1.739499723e-09
1.776903424e-09
1.815366087e-09
1.854929169e-09
1.895636324e-09
1.937533567e-09
1.980669438e-09
2.025095215e-09
2.070865116e-09
2.118036535e-09
2.166670296e-09
2.216830941e-09
2.268587041e-09
2.322011535e-09
2.377182101e-09
2.43418157e-09
2.493098389e-09
2.554027125e-09
2.617069023e-09
2.68233262e-09
2.749934429e-09
2.819999691e-09
2.892663202e-09
2.968070239e-09
3.046377574e-09
3.127754602e-09
3.212384587e-09
3.300466046e-09
3.392214275e-09
3.487863045e-09
3.58766648e-09
3.691901134e-09
3.800868303e-09
3.914896575e-09
4.034344668e-09
4.159604573e-09
4.291105034e-09
4.429315422e-09
4.574750014e-09
4.727972755e-09
4.889602532e-09
5.060319033e-09
5.240869238e-09
5.432074631e-09
5.634839202e-09
5.850158322e-09
6.0791286e-09
6.322958819e-09
6.582982075e-09
6.860669256e-09
7.157643997e-09
7.475699284e-09
7.81681589e-09
8.183182837e-09
8.577220112e-09
9.001603889e-09
9.459294527e-09
9.953567654e-09
1.048804868e-08
1.106675112e-08
1.169411912e-08
1.23750747e-08
1.311507017e-08
1.392014638e-08
1.479699734e-08
1.575304199e-08
1.679650388e-08
1.793649962e-08
1.918313712e-08
2.054762463e-08
2.204239178e-08
2.368122404e-08
2.547941188e-08
2.745391653e-08
2.962355383e-08
3.200919846e-08
3.463401064e-08
3.752368778e-08
4.070674387e-08
4.421481959e-08
4.808302663e-08
5.235032989e-08
5.705997163e-08
6.225994246e-08
6.800350401e-08
7.434976908e-08
8.136434557e-08
8.912005117e-08
9.76977065e-08
1.071870153e-07
1.176875415e-07
1.293097925e-07
1.421764227e-07
1.564235673e-07
1.722023229e-07
1.8968039e-07
2.090438946e-07
2.304994085e-07
2.542761908e-07
2.806286718e-07
3.098392087e-07
3.422211387e-07
3.781221645e-07
4.179281048e-07
4.620670498e-07
5.110139638e-07
5.652957824e-07
6.254970537e-07
6.922661823e-07
7.663223352e-07
8.484630781e-07
9.395728147e-07
1.040632108e-06
1.15272797e-06
1.277065212e-06
1.414978957e-06
1.567948415e-06
1.737612044e-06
1.925784205e-06
2.134473447e-06
2.365902542e-06
2.62253041e-06
2.907076063e-06
3.222544702e-06
3.572256093e-06
3.959875333e-06
4.389446107e-06
4.865426516e-06
5.392727501e-06
5.976753879e-06
6.623447902e-06
7.339335232e-06
8.131573066e-06
9.008000101e-06
9.977187831e-06
1.104849255e-05
1.223210721e-05
1.353911216e-05
1.498152336e-05
1.657233668e-05
1.832556646e-05
2.02562762e-05
2.238059924e-05
2.471574688e-05
2.72800013e-05
3.009269087e-05
3.317414503e-05
3.654562685e-05
4.022924128e-05
4.424781821e-05
4.862477006e-05
5.338392502e-05
5.854933805e-05
6.414508334e-05
7.019503318e-05
7.672262942e-05
8.375065478e-05
9.130101185e-05
9.939451783e-05
0.0001080507228
0.0001172877583
0.0001271222227
0.0001375691059
0.0001486417573
0.0001603518969
0.0001727096671
0.000185723724
0.0001994013631
0.0002137486733
0.0002287707183
0.0002444717415
0.0002608553999
0.0002779250465
0.0002956841008
0.0003141365825
0.0003332846404
0.0003531442922
0.0003737057574
0.0003950329547
0.0004171318156
0.0004400264571
0.0004634812994
0.0004876657086
0.0005125808477
0.0005382137176
0.0005645208816
0.0005914006396
0.0006186767343
0.0006460877902
0.0006732820297
0.0006998403616
0.000725292196
0.0007494213053
0.0007710737655
0.0007899130788
0.0008052257087
0.0008163363855
0.0008221505047
0.0008219195915
0.0008148824056
0.0008004899733
0.0007784871874
0.0007487221759
0.0007114975851
0.0006675446861
0.0006180362735
0.000564515126
0.0005085494924
0.000452395682
0.0003974242735
0.0003453408053
0.0002970715592
0.0002532973799
0.0002143415591
0.0001802345577
0.0001505679261
0.0001250920791
0.0001035329975
8.543215609e-05
7.033045082e-05
5.779440247e-05
4.742852187e-05
3.888297636e-05
3.185479301e-05
2.608714309e-05
2.141730696e-05
1.759055189e-05
1.443121663e-05
1.184922646e-05
9.738518277e-06
8.011957274e-06
6.598473822e-06
5.440265616e-06
4.491035821e-06
3.711282676e-06
3.070581711e-06
2.543612423e-06
2.109736922e-06
1.752123621e-06
1.457037246e-06
1.21326259e-06
1.01163633e-06
8.446664415e-07
7.062227247e-07
5.912851457e-07
4.957391441e-07
4.162091281e-07
3.499229958e-07
2.946018694e-07
2.483702981e-07
2.096831144e-07
1.772658e-07
1.500658385e-07
1.272130025e-07
1.079869055e-07
9.179046607e-08
7.812818667e-08
6.658835592e-08
5.682845069e-08
4.856314979e-08
4.155448139e-08
3.560371511e-08
3.054468234e-08
2.623826668e-08
2.256785433e-08
1.943557257e-08
1.675917617e-08
1.446946711e-08
1.250815355e-08
1.082607122e-08
9.381704098e-09
8.139952573e-09
7.071106376e-09
6.149987309e-09
5.355232824e-09
4.668696595e-09
4.074946408e-09
3.560843085e-09
3.115186939e-09
2.72842061e-09
2.392379001e-09
2.100078606e-09
1.845539836e-09
1.623637005e-09
1.429971531e-09
1.260764639e-09
1.112766472e-09
9.831790251e-10
8.695907086e-10
7.699207545e-10
6.823719136e-10
6.053901765e-10
5.376304348e-10
4.779271787e-10
4.252694643e-10
3.787795084e-10
3.376943653e-10
3.013502261e-10
2.691689516e-10
2.406465101e-10
2.153430393e-10
1.928742968e-10
1.729042977e-10
1.551389676e-10
1.393206665e-10
1.252234586e-10
1.126490232e-10
1.014231157e-10
9.139250252e-11
8.242230312e-11
7.43936836e-11
6.720185293e-11
6.075432082e-11
5.496938158e-11
4.977479329e-11
4.51066263e-11
4.090825825e-11
3.712949628e-11
3.37258096e-11
3.065765797e-11
2.78899036e-11
2.539129562e-11
2.313401779e-11
2.109329138e-11
1.924702615e-11
1.757551338e-11
1.606115565e-11
1.468822872e-11
1.344267169e-11
1.231190167e-11
1.128465023e-11
1.035081875e-11
9.50135058e-12
8.728117726e-12
8.023820591e-12
7.38189901e-12
6.796453338e-12
6.262174376e-12
5.774281105e-12
5.328465318e-12
4.920842341e-12
4.547907155e-12
4.206495292e-12
3.893747959e-12
3.607080922e-12
3.344156708e-12
3.102859771e-12
2.881274284e-12
2.677664265e-12
2.49045578e-12
2.318221001e-12
2.159663908e-12
2.013607462e-12
1.878982097e-12
1.75481537e-12
1.64022267e-12
1.534398854e-12
1.43661072e-12
1.346190239e-12
1.262528441e-12
1.185069917e-12
1.11330785e-12
1.046779538e-12
9.850623424e-13
9.277700348e-13
8.745494886e-13
8.250776893e-13
7.790590267e-13
7.362228442e-13
6.963212179e-13
6.591269426e-13
6.244317058e-13
5.920444309e-13
5.617897722e-13
5.335067486e-13
5.070475009e-13
4.822761634e-13
4.590678356e-13
4.373076477e-13
4.16889909e-13
3.977173324e-13
3.797003277e-13
3.627563569e-13
3.468093464e-13
3.317891504e-13
3.176310613e-13
3.042753623e-13
2.916669183e-13
2.797548028e-13
2.684919555e-13
2.578348703e-13
2.477433088e-13
2.381800384e-13
2.291105927e-13
2.205030511e-13
2.123278377e-13
2.045575365e-13
1.971667219e-13
1.901318028e-13
1.834308804e-13
1.770436167e-13
1.709511146e-13
1.651358064e-13
1.595813532e-13
1.542725505e-13
1.491952425e-13
1.443362431e-13
1.396832627e-13
1.352248416e-13
1.30950288e-13
1.268496209e-13
1.22913518e-13
1.191332672e-13
1.15500722e-13
1.120082605e-13
1.086487475e-13
1.054154994e-13
1.023022516e-13
9.930312919e-14
9.641261896e-14
9.362554412e-14
9.09370406e-14
8.834253538e-14
8.583772625e-14
8.341856315e-14
8.108123108e-14
7.882213404e-14
7.663788008e-14
7.452526776e-14
7.24812735e-14
7.050303971e-14
6.858786384e-14
6.673318832e-14
6.493659116e-14
6.319577723e-14
6.150857015e-14
5.987290476e-14
5.828682011e-14
5.674845301e-14
5.525603203e-14
5.380787183e-14
5.240236792e-14
5.103799182e-14
4.971328649e-14
4.842686208e-14
4.717739217e-14
4.596360988e-14
4.478430463e-14
4.363831883e-14
4.252454499e-14
4.144192284e-14
4.038943678e-14
3.936611346e-14
3.837101951e-14
3.740325937e-14
3.646197335e-14
3.554633572e-14
3.465555303e-14
3.378886239e-14
3.294553001e-14
3.212484969e-14
3.132614157e-14
3.054875068e-14
2.979204597e-14
2.905541894e-14
2.833828284e-14
2.764007148e-14
2.696023837e-14
2.629825583e-14
2.565361416e-14
2.502582082e-14
2.441439977e-14
2.381889066e-14
2.323884824e-14
2.26738417e-14
2.21234541e-14
2.158728182e-14
2.106493397e-14
2.055603191e-14
2.006020876e-14
1.957710902e-14
1.910638799e-14
1.864771154e-14
1.820075556e-14
1.776520574e-14
1.734075703e-14
1.692711346e-14
1.652398775e-14
1.6131101e-14
1.574818244e-14
1.537496906e-14
1.501120543e-14
1.465664347e-14
1.43110421e-14
1.397416704e-14
1.364579065e-14
1.332569161e-14
1.301365484e-14
1.27094712e-14
1.241293731e-14
1.21238554e-14
1.184203314e-14
1.156728345e-14
1.129942436e-14
1.103827882e-14
1.078367455e-14
1.053544395e-14
1.029342392e-14
1.005745571e-14
9.827384829e-15
9.603060891e-15
9.384337506e-15
9.171072181e-15
8.963126205e-15
8.760364501e-15
8.562655552e-15
8.369871272e-15
8.181886971e-15
7.998581217e-15
7.819835741e-15
7.645535343e-15
7.475567845e-15
7.309823951e-15
7.148197207e-15
6.990583938e-15
6.836883133e-15
6.686996371e-15
6.540827787e-15
6.398283986e-15
6.259273962e-15
6.123709035e-15
5.991502822e-15
5.862571131e-15
5.73683195e-15
5.614205326e-15
5.494613372e-15
5.377980182e-15
5.264231773e-15
5.153296064e-15
5.045102777e-15
4.93958345e-15
4.836671331e-15
4.736301378e-15
4.638410186e-15
4.542935957e-15
4.449818468e-15
4.358999004e-15
4.270420342e-15
4.184026704e-15
4.099763715e-15
4.017578365e-15
3.937418989e-15
3.859235209e-15
3.782977929e-15
3.708599291e-15
3.63605263e-15
3.565292451e-15
3.496274408e-15
3.428955263e-15
3.363292866e-15
3.299246122e-15
3.236774977e-15
3.175840348e-15
3.116404166e-15
3.058429287e-15
3.001879524e-15
2.946719573e-15
2.892915036e-15
2.840432354e-15
2.789238814e-15
2.739302516e-15
2.690592353e-15
2.643078014e-15
2.596729915e-15
2.551519229e-15
2.507417862e-15
2.464398383e-15
2.42243408e-15
2.381498872e-15
2.341567351e-15
2.302614732e-15
2.264616868e-15
2.22755019e-15
2.191391708e-15
2.15611902e-15
2.121710285e-15
2.088144187e-15
2.055399952e-15
2.023457327e-15
1.992296558e-15
1.961898364e-15
1.932243967e-15
1.903315039e-15
1.875093722e-15
1.847562595e-15
1.820704664e-15
1.794503354e-15
1.768942512e-15
1.744006376e-15
1.719679581e-15
1.695947131e-15
1.672794429e-15
1.650207209e-15
1.628171573e-15
1.606673964e-15
1.585701168e-15
1.565240286e-15
1.545278753e-15
1.525804288e-15
1.506804942e-15
1.488269051e-15
1.470185245e-15
1.452542427e-15
1.435329778e-15
1.41853674e-15
1.402153024e-15
1.386168605e-15
1.37057369e-15
1.355358724e-15
1.3405144e-15
1.326031638e-15
1.31190158e-15
1.298115593e-15
1.284665254e-15
1.271542346e-15
1.258738858e-15
1.246246965e-15
1.234059049e-15
1.222167679e-15
1.210565605e-15
1.19924574e-15
1.188201207e-15
1.177425265e-15
1.166911355e-15
1.156653079e-15
1.146644194e-15
1.136878615e-15
1.127350404e-15
1.118053768e-15
1.10898306e-15
1.100132771e-15
1.091497521e-15
1.083072079e-15
1.074851336e-15
1.066830302e-15
1.059004113e-15
1.051368026e-15
1.043917418e-15
1.036647776e-15
1.029554691e-15
1.022633883e-15
1.015881159e-15
1.009292433e-15
1.002863728e-15
9.965911579e-16
9.904709322e-16
9.844993516e-16
9.786728065e-16
9.729877811e-16
9.674408472e-16
9.620286605e-16
9.567479624e-16
9.515955703e-16
9.465683721e-16
9.416633345e-16
9.368775074e-16
9.322080053e-16
9.276520188e-16
9.23206806e-16
9.188696913e-16
9.146380683e-16
9.105093875e-16
9.064811631e-16
9.025509686e-16
8.987164437e-16
8.949752826e-16
8.913252333e-16
8.877640995e-16
8.84289741e-16
8.809000632e-16
8.775930311e-16
8.743666493e-16
8.71218977e-16
8.681481124e-16
8.651522049e-16
8.622294447e-16
8.593780679e-16
8.565963489e-16
8.538826139e-16
8.512352186e-16
8.486525567e-16
8.461330635e-16
8.436752061e-16
8.412774842e-16
8.389384425e-16
8.366566519e-16
8.344307131e-16
8.322592616e-16
8.301409627e-16
8.280745091e-16
8.260586203e-16
8.240920486e-16
8.221735711e-16
8.203019929e-16
8.184761446e-16
8.166948756e-16
8.14957066e-16
8.132616145e-16
8.116074481e-16
8.099935167e-16
8.084187864e-16
8.06882251e-16
8.053829278e-16
8.039198515e-16
8.024920803e-16
8.010986943e-16
7.997387995e-16
7.984115219e-16
7.971160054e-16
7.958514228e-16
7.946169661e-16
7.934118528e-16
7.922353219e-16
7.910866293e-16
7.899650593e-16
7.888699231e-16
7.878005507e-16
7.867563096e-16
7.784575509e-16
7.698842303e-16
7.645458443e-16
7.615545117e-16
7.60340405e-16
7.605237186e-16
7.618453969e-16
7.641282528e-16
7.672528483e-16
7.711410862e-16
7.757448867e-16
7.810384044e-16
7.870120296e-16
7.936684957e-16
8.010199647e-16
8.090858618e-16
8.178914997e-16
8.274670678e-16
8.378467642e-16
8.490684186e-16
8.611729968e-16
8.742043989e-16
8.882092751e-16
9.032367399e-16
9.193382355e-16
9.365673718e-16
9.549796633e-16
9.74632306e-16
9.955838611e-16
1.017893892e-15
1.041622529e-15
1.066829964e-15
1.093575839e-15
1.121918556e-15
1.151914486e-15
1.18361706e-15
1.217075784e-15
1.252335127e-15
1.289433312e-15
1.328401041e-15
1.369260129e-15
1.41202208e-15
1.456686663e-15
1.50324045e-15
1.551655428e-15
1.601887682e-15
1.653876198e-15
1.707541873e-15
1.762786699e-15
1.819493317e-15
1.877524822e-15
1.936724996e-15
1.996918937e-15
2.057914144e-15
2.11950203e-15
2.181459914e-15
2.243553424e-15
2.305539312e-15
2.367168624e-15
2.428190081e-15
2.488353745e-15
2.547414666e-15
2.605136626e-15
2.661295677e-15
2.715683518e-15
2.768110527e-15
2.818408395e-15
2.866432277e-15
2.912062436e-15
2.955205296e-15
2.995793932e-15
3.033787994e-15
3.069173075e-15
3.101959596e-15
3.132181239e-15
3.159893009e-15
3.185169004e-15
3.208099973e-15
3.228790721e-15
3.247357476e-15
3.263925254e-15
3.278625309e-15
3.291592703e-15
3.30296406e-15
3.312875525e-15
3.321460956e-15
3.328850365e-15
3.335168601e-15
3.340534298e-15
3.345059055e-15
3.348846841e-15
3.351993621e-15
3.354587161e-15
3.356707004e-15
3.358424595e-15
3.359803516e-15
3.360899836e-15
3.361762529e-15
3.362433949e-15
3.362950356e-15
3.363342456e-15
3.363635958e-15
3.363852127e-15
3.364008321e-15
3.364118516e-15
3.364193789e-15
3.36424278e-15
3.364272108e-15
3.36428675e-15
3.364290377e-15
3.364285643e-15
3.36427444e-15
3.364258106e-15
3.364237594e-15
3.364213611e-15
3.364186718e-15
3.364157407e-15
3.364126147e-15
3.364093415e-15
3.364059708e-15
3.36402554e-15
3.363991435e-15
3.363957909e-15
3.363925454e-15
3.363894516e-15
3.36386548e-15
3.363838657e-15
3.363814268e-15
3.363792448e-15
3.363773238e-15
3.363756592e-15
3.363742384e-15
3.363730423e-15
3.36372046e-15
3.363712211e-15
3.363705366e-15
3.363699611e-15
3.363694637e-15
3.363690157e-15
3.363685913e-15
3.363681687e-15
3.363677302e-15
3.363672631e-15
3.363667588e-15
3.363662135e-15
3.36365627e-15
3.363650026e-15
3.363643463e-15
3.363636659e-15
3.363629705e-15
3.363622698e-15
3.363615733e-15
3.363608901e-15
3.363602282e-15
3.36359594e-15
3.363589929e-15
3.363584283e-15
3.363579024e-15
3.363574158e-15
3.36356968e-15
3.363565574e-15
3.363561817e-15
3.36355838e-15
3.363555234e-15
3.363552347e-15
3.36354969e-15
3.363547234e-15
3.363544958e-15
3.363542841e-15
3.363540868e-15
3.36353903e-15
3.363537318e-15
3.36353573e-15
3.363534263e-15
3.36353292e-15
3.363531701e-15
3.36353061e-15
3.363529649e-15
3.36352882e-15
3.363528127e-15
3.36352757e-15
3.36352715e-15
3.363526869e-15
3.363526725e-15
3.363526718e-15
3.363526847e-15
3.363527111e-15
3.363527508e-15
3.363528037e-15
3.363528695e-15
3.36352948e-15
3.363530387e-15
3.363531415e-15
3.363532557e-15
3.363533809e-15
3.363535163e-15
3.363536614e-15
3.363538151e-15
3.363539766e-15
3.363541449e-15
3.363543188e-15
3.363544972e-15
3.363546788e-15
3.363548624e-15
3.363550467e-15
3.363552304e-15
3.363554122e-15
3.363555908e-15
3.363557652e-15
3.363559341e-15
3.363560965e-15
3.363562514e-15
3.363563979e-15
3.363565352e-15
3.363566626e-15
3.363567796e-15
3.363568856e-15
3.363569802e-15
3.363570631e-15
3.363571342e-15
3.363571934e-15
3.363572405e-15
3.363572757e-15
3.363572992e-15
3.36357311e-15
3.363573114e-15
3.363573008e-15
3.363572794e-15
3.363572476e-15
3.363572057e-15
3.363571542e-15
3.363570935e-15
3.363570239e-15
3.363569459e-15
3.363568598e-15
3.36356766e-15
3.36356665e-15
3.36356557e-15
3.363564424e-15
3.363563216e-15
3.363561948e-15
3.363560625e-15
3.363559249e-15
3.363557825e-15
3.363556355e-15
3.363554848e-15
3.363553313e-15
3.363551771e-15
3.363550262e-15
3.363548875e-15
)
;

boundaryField
{
    inlet
    {
        type            fixedValue;
        value           uniform 0;
    }
    outlet
    {
        type            zeroGradient;
    }
    wall
    {
        type            empty;
    }
}


// ************************************************************************* //
