/*--------------------------------*- C++ -*----------------------------------*\
  =========                 |
  \\      /  F ield         | OpenFOAM: The Open Source CFD Toolbox
   \\    /   O peration     | Website:  https://openfoam.org
    \\  /    A nd           | Version:  7
     \\/     M anipulation  |
\*---------------------------------------------------------------------------*/
FoamFile
{
    version     2.0;
    format      ascii;
    class       volScalarField;
    location    "0.000558243009";
    object      CH4_0;
}
// * * * * * * * * * * * * * * * * * * * * * * * * * * * * * * * * * * * * * //

dimensions      [0 0 0 0 0 0 0];

internalField   nonuniform List<scalar> 
1500
(
7.095248943e-12
2.780883985e-11
5.752688101e-11
8.692472239e-11
1.09363625e-10
1.234376075e-10
1.309634817e-10
1.344747847e-10
1.359278312e-10
1.364681282e-10
1.366506214e-10
1.367071324e-10
1.367233025e-10
1.367276068e-10
1.367286788e-10
1.367289299e-10
1.367289855e-10
1.367289971e-10
1.367289995e-10
1.367289999e-10
1.36729e-10
1.36729e-10
1.36729e-10
1.36729e-10
1.36729e-10
1.36729e-10
1.36729e-10
1.36729e-10
1.36729e-10
1.36729e-10
1.36729e-10
1.36729e-10
1.36729e-10
1.36729e-10
1.36729e-10
1.36729e-10
1.36729e-10
1.36729e-10
1.36729e-10
1.36729e-10
1.36729e-10
1.36729e-10
1.36729e-10
1.36729e-10
1.36729e-10
1.36729e-10
1.36729e-10
1.36729e-10
1.36729e-10
1.36729e-10
1.36729e-10
1.36729e-10
1.36729e-10
1.36729e-10
1.36729e-10
1.36729e-10
1.36729e-10
1.36729e-10
1.36729e-10
1.36729e-10
1.36729e-10
1.36729e-10
1.36729e-10
1.36729e-10
1.36729e-10
1.36729e-10
1.36729e-10
1.36729e-10
1.36729e-10
1.36729e-10
1.36729e-10
1.36729e-10
1.36729e-10
1.36729e-10
1.36729e-10
1.36729e-10
1.36729e-10
1.36729e-10
1.36729e-10
1.36729e-10
1.36729e-10
1.36729e-10
1.36729e-10
1.36729e-10
1.36729e-10
1.36729e-10
1.36729e-10
1.36729e-10
1.36729e-10
1.36729e-10
1.36729e-10
1.36729e-10
1.36729e-10
1.36729e-10
1.36729e-10
1.36729e-10
1.36729e-10
1.36729e-10
1.36729e-10
1.36729e-10
1.36729e-10
1.36729e-10
1.36729e-10
1.36729e-10
1.36729e-10
1.36729e-10
1.36729e-10
1.36729e-10
1.36729e-10
1.36729e-10
1.36729e-10
1.36729e-10
1.36729e-10
1.36729e-10
1.36729e-10
1.36729e-10
1.36729e-10
1.36729e-10
1.36729e-10
1.36729e-10
1.36729e-10
1.36729e-10
1.36729e-10
1.36729e-10
1.36729e-10
1.36729e-10
1.36729e-10
1.36729e-10
1.36729e-10
1.36729e-10
1.36729e-10
1.36729e-10
1.36729e-10
1.36729e-10
1.36729e-10
1.36729e-10
1.36729e-10
1.36729e-10
1.36729e-10
1.36729e-10
1.36729e-10
1.36729e-10
1.36729e-10
1.36729e-10
1.36729e-10
1.36729e-10
1.36729e-10
1.36729e-10
1.36729e-10
1.36729e-10
1.36729e-10
1.36729e-10
1.36729e-10
1.36729e-10
1.36729e-10
1.36729e-10
1.36729e-10
1.36729e-10
1.36729e-10
1.36729e-10
1.36729e-10
1.36729e-10
1.36729e-10
1.36729e-10
1.36729e-10
1.36729e-10
1.36729e-10
1.36729e-10
1.36729e-10
1.36729e-10
1.36729e-10
1.36729e-10
1.36729e-10
1.36729e-10
1.36729e-10
1.36729e-10
1.36729e-10
1.36729e-10
1.36729e-10
1.36729e-10
1.36729e-10
1.36729e-10
1.36729e-10
1.36729e-10
1.36729e-10
1.36729e-10
1.36729e-10
1.36729e-10
1.36729e-10
1.36729e-10
1.36729e-10
1.36729e-10
1.36729e-10
1.36729e-10
1.36729e-10
1.36729e-10
1.36729e-10
1.36729e-10
1.36729e-10
1.36729e-10
1.36729e-10
1.36729e-10
1.36729e-10
1.36729e-10
1.36729e-10
1.36729e-10
1.36729e-10
1.36729e-10
1.36729e-10
1.36729e-10
1.36729e-10
1.36729e-10
1.36729e-10
1.36729e-10
1.36729e-10
1.36729e-10
1.36729e-10
1.36729e-10
1.36729e-10
1.36729e-10
1.36729e-10
1.36729e-10
1.36729e-10
1.36729e-10
1.36729e-10
1.36729e-10
1.36729e-10
1.36729e-10
1.36729e-10
1.36729e-10
1.36729e-10
1.36729e-10
1.36729e-10
1.367290002e-10
1.367290007e-10
1.367290022e-10
1.367290069e-10
1.36729021e-10
1.367290607e-10
1.367291677e-10
1.367294421e-10
1.367301113e-10
1.367316603e-10
1.367350563e-10
1.367420863e-10
1.367557635e-10
1.367805948e-10
1.368221591e-10
1.368848639e-10
1.369658992e-10
1.370068394e-10
1.370164062e-10
1.370263548e-10
1.370367063e-10
1.370474779e-10
1.370586867e-10
1.37070351e-10
1.370824903e-10
1.370951256e-10
1.37108279e-10
1.37121974e-10
1.371362354e-10
1.371510888e-10
1.371665613e-10
1.371826811e-10
1.371994777e-10
1.372169819e-10
1.372352259e-10
1.372542434e-10
1.372740697e-10
1.372947415e-10
1.373162972e-10
1.373387771e-10
1.373622232e-10
1.373866792e-10
1.374121911e-10
1.374388066e-10
1.374665756e-10
1.374955503e-10
1.37525785e-10
1.375573366e-10
1.375902641e-10
1.376246293e-10
1.376604966e-10
1.376979331e-10
1.377370087e-10
1.377777962e-10
1.378203717e-10
1.378648142e-10
1.379112061e-10
1.37959633e-10
1.380101842e-10
1.380629526e-10
1.381180347e-10
1.381755311e-10
1.382355462e-10
1.382981885e-10
1.383635711e-10
1.384318112e-10
1.385030305e-10
1.385773557e-10
1.386549181e-10
1.387358541e-10
1.38820305e-10
1.389084179e-10
1.390003447e-10
1.390962435e-10
1.391962778e-10
1.393006171e-10
1.394094373e-10
1.395229201e-10
1.396412539e-10
1.397646338e-10
1.398932615e-10
1.400273458e-10
1.401671026e-10
1.403127552e-10
1.404645343e-10
1.406226782e-10
1.407874335e-10
1.409590543e-10
1.411378035e-10
1.41323952e-10
1.415177795e-10
1.417195746e-10
1.419296348e-10
1.421482668e-10
1.423757866e-10
1.4261252e-10
1.428588023e-10
1.431149789e-10
1.433814053e-10
1.436584472e-10
1.43946481e-10
1.442458935e-10
1.445570826e-10
1.448804571e-10
1.45216437e-10
1.455654538e-10
1.459279504e-10
1.463043816e-10
1.466952137e-10
1.471009255e-10
1.475220077e-10
1.479589633e-10
1.48412308e-10
1.488825699e-10
1.493702901e-10
1.498760224e-10
1.504003337e-10
1.509438039e-10
1.515070265e-10
1.520906079e-10
1.526951684e-10
1.533213415e-10
1.539697746e-10
1.546411287e-10
1.553360787e-10
1.560553132e-10
1.56799535e-10
1.575694606e-10
1.583658207e-10
1.5918936e-10
1.600408374e-10
1.609210258e-10
1.618307122e-10
1.627706979e-10
1.637417982e-10
1.647448425e-10
1.657806744e-10
1.668501516e-10
1.679541456e-10
1.690935422e-10
1.702692409e-10
1.714821552e-10
1.727332126e-10
1.740233539e-10
1.753535339e-10
1.76724721e-10
1.78137897e-10
1.79594057e-10
1.810942096e-10
1.826393764e-10
1.842305921e-10
1.858689044e-10
1.875553739e-10
1.892910738e-10
1.910770899e-10
1.929145205e-10
1.948044762e-10
1.967480797e-10
1.98746466e-10
2.008007818e-10
2.029121859e-10
2.050818486e-10
2.073109518e-10
2.096006889e-10
2.119522649e-10
2.143668957e-10
2.168458088e-10
2.193902424e-10
2.220014462e-10
2.246806805e-10
2.27429217e-10
2.30248338e-10
2.331393369e-10
2.36103518e-10
2.391421968e-10
2.422566995e-10
2.454483638e-10
2.487185384e-10
2.520685835e-10
2.554998708e-10
2.590137838e-10
2.626117179e-10
2.662950807e-10
2.700652924e-10
2.739237859e-10
2.778720076e-10
2.819114174e-10
2.860434893e-10
2.90269712e-10
2.945915894e-10
2.990106412e-10
3.035284037e-10
3.081464302e-10
3.128662923e-10
3.176895802e-10
3.226179041e-10
3.276528947e-10
3.327962048e-10
3.3804951e-10
3.4341451e-10
3.488929299e-10
3.544865216e-10
3.601970654e-10
3.66026371e-10
3.719762797e-10
3.780486657e-10
3.842454383e-10
3.905685434e-10
3.970199656e-10
4.036017305e-10
4.103159069e-10
4.171646088e-10
4.241499981e-10
4.312742872e-10
4.385397416e-10
4.459486826e-10
4.535034904e-10
4.61206607e-10
4.690605395e-10
4.770678633e-10
4.852312258e-10
4.935533499e-10
5.020370375e-10
5.10685174e-10
5.195007319e-10
5.28486775e-10
5.376464634e-10
5.469830572e-10
5.56499922e-10
5.662005336e-10
5.760884829e-10
5.861674815e-10
5.964413669e-10
6.069141087e-10
6.17589814e-10
6.284727339e-10
6.395672696e-10
6.50877979e-10
6.62409584e-10
6.741669768e-10
6.861552278e-10
6.983795931e-10
7.10845522e-10
7.235586657e-10
7.365248853e-10
7.497502608e-10
7.632411e-10
7.77003948e-10
7.910455972e-10
8.053730968e-10
8.199937639e-10
8.349151944e-10
8.501452739e-10
8.656921899e-10
8.81564444e-10
8.977708648e-10
9.143206208e-10
9.312232348e-10
9.484885982e-10
9.66126986e-10
9.841490731e-10
1.00256595e-09
1.021389142e-09
1.040630625e-09
1.060302846e-09
1.080418744e-09
1.100991769e-09
1.122035907e-09
1.143565703e-09
1.165596282e-09
1.188143383e-09
1.21122338e-09
1.234853315e-09
1.25905093e-09
1.283834701e-09
1.30922387e-09
1.335238491e-09
1.361899463e-09
1.389228585e-09
1.417248594e-09
1.445983213e-09
1.475457224e-09
1.505696514e-09
1.536728133e-09
1.568580373e-09
1.601282842e-09
1.634866538e-09
1.669363949e-09
1.704809141e-09
1.741237864e-09
1.778687667e-09
1.817198017e-09
1.856810434e-09
1.897568641e-09
1.939518726e-09
1.9827093e-09
2.027191718e-09
2.073020283e-09
2.120252476e-09
2.168949212e-09
2.219175126e-09
2.270998899e-09
2.324493579e-09
2.379736959e-09
2.436811993e-09
2.49580726e-09
2.556817465e-09
2.619944003e-09
2.685295572e-09
2.752988855e-09
2.823149276e-09
2.895911829e-09
2.971422001e-09
3.049836794e-09
3.131325847e-09
3.216072692e-09
3.304276132e-09
3.396151773e-09
3.491933724e-09
3.591876474e-09
3.696256976e-09
3.805376957e-09
3.919565477e-09
4.039181767e-09
4.164618378e-09
4.296304668e-09
4.434710674e-09
4.580351407e-09
4.733791612e-09
4.895651057e-09
5.06661039e-09
5.247417648e-09
5.438895475e-09
5.641949134e-09
5.857575397e-09
6.08687241e-09
6.331050648e-09
6.591445069e-09
6.86952861e-09
7.166927159e-09
7.485436187e-09
7.8270392e-09
8.193928233e-09
8.58852659e-09
9.013514102e-09
9.471855156e-09
9.966829821e-09
1.05020684e-08
1.10815898e-08
1.17098441e-08
1.239175987e-08
1.313279665e-08
1.393900323e-08
1.481708239e-08
1.57744627e-08
1.681937836e-08
1.796095769e-08
1.920932149e-08
2.05756922e-08
2.207251509e-08
2.371359281e-08
2.551423478e-08
2.749142303e-08
2.96639963e-08
3.205285446e-08
3.468118539e-08
3.757471691e-08
4.07619964e-08
4.427470124e-08
4.814798339e-08
5.242085192e-08
5.713659757e-08
6.23432641e-08
6.809417139e-08
7.444849606e-08
8.14719159e-08
8.923732507e-08
9.78256279e-08
1.073266197e-07
1.178399641e-07
1.294762781e-07
1.42358335e-07
1.566224e-07
1.724197117e-07
1.899181246e-07
2.093039329e-07
2.307838913e-07
2.545874571e-07
2.809692764e-07
3.102119399e-07
3.426290384e-07
3.785685486e-07
4.184165853e-07
4.626015587e-07
5.115987778e-07
5.659355491e-07
6.261968194e-07
6.930314209e-07
7.671589781e-07
8.493775452e-07
9.405720461e-07
1.041723596e-06
1.153919793e-06
1.278366063e-06
1.416398177e-06
1.569496022e-06
1.739298758e-06
1.927621469e-06
2.136473445e-06
2.368078206e-06
2.624895419e-06
2.909644831e-06
3.225332345e-06
3.575278379e-06
3.963148606e-06
4.392987181e-06
4.869252527e-06
5.396855716e-06
5.981201445e-06
6.628231528e-06
7.344470781e-06
8.137075059e-06
9.013881086e-06
9.983457624e-06
1.10551573e-05
1.223916826e-05
1.35465647e-05
1.498935476e-05
1.65805246e-05
1.83340765e-05
2.026505923e-05
2.238958822e-05
2.472485321e-05
2.728911063e-05
3.010165829e-05
3.318278968e-05
3.655372586e-05
4.023652316e-05
4.42539556e-05
4.862937202e-05
5.338652895e-05
5.854940137e-05
6.414197518e-05
7.018802636e-05
7.6710893e-05
8.373324751e-05
9.127687689e-05
9.936247904e-05
0.0001080094829
0.0001172358995
0.0001270582088
0.0001374912877
0.00014854838
0.0001602411092
0.0001725795332
0.0001855722362
0.0001992264572
0.0002135482432
0.0002285426297
0.0002442138389
0.0002605654964
0.0002776008817
0.0002953232545
0.0003137363807
0.0003328399666
0.0003526540888
0.0003731581136
0.0003944416808
0.0004165105571
0.000439398442
0.0004627940504
0.0004869210544
0.000511782474
0.0005373662878
0.0005636299485
0.0005904730976
0.0006177208478
0.000645116183
0.0006723134133
0.0006989038467
0.0007244072178
0.0007486163948
0.0007703653057
0.000789312375
0.0008047453693
0.000816005803
0.0008219731025
0.0008219041279
0.0008150273759
0.0008008681093
0.0007790207415
0.0007494163836
0.000712352996
0.0006685566995
0.0006191821017
0.000565752724
0.0005099391015
0.0004537904397
0.0003987708484
0.0003466052872
0.000298226166
0.0002543220989
0.0002152210911
0.00018095369
0.0001512235336
0.0001256717468
0.0001040365119
8.586671146e-05
7.070565126e-05
5.812262208e-05
4.772257922e-05
3.915465831e-05
3.211138748e-05
2.633300994e-05
2.163230467e-05
1.777834623e-05
1.460607567e-05
1.201026344e-05
9.884974565e-06
8.143659779e-06
6.71581517e-06
5.544046662e-06
4.581843863e-06
3.790669938e-06
3.139684132e-06
2.603529933e-06
2.16150676e-06
1.796706962e-06
1.495313721e-06
1.246029463e-06
1.039610445e-06
8.684878612e-07
7.264593925e-07
6.084381262e-07
5.102481606e-07
4.284581737e-07
3.602458581e-07
3.032874486e-07
2.556676476e-07
2.158061342e-07
1.823975589e-07
1.543625124e-07
1.308074252e-07
1.109917434e-07
9.430103453e-08
8.022493133e-08
6.833902508e-08
5.828998621e-08
4.978332459e-08
4.257331072e-08
3.645466759e-08
3.125571509e-08
2.683270682e-08
2.306514717e-08
1.985191469e-08
1.710804966e-08
1.476208913e-08
1.275385382e-08
1.103260828e-08
9.555529836e-09
8.286432948e-09
7.194705435e-09
6.254420332e-09
5.443593624e-09
4.743563232e-09
4.13846891e-09
3.614816163e-09
3.161110257e-09
2.767548707e-09
2.425762637e-09
2.128599003e-09
1.869937039e-09
1.644533382e-09
1.447891246e-09
1.276149806e-09
1.125990562e-09
9.94557999e-10
8.793922791e-10
7.78372092e-10
6.896660706e-10
6.116914485e-10
5.430788406e-10
4.826422102e-10
4.293532303e-10
3.823193735e-10
3.407651696e-10
3.040161549e-10
2.714851131e-10
2.426602684e-10
2.170951431e-10
1.943998366e-10
1.742335181e-10
1.562979589e-10
1.403319529e-10
1.261065007e-10
1.134206465e-10
1.020978778e-10
9.198300664e-11
8.293946764e-11
7.484697281e-11
6.759947554e-11
6.110340056e-11
5.527610397e-11
5.004453216e-11
4.534405274e-11
4.111743468e-11
3.731395761e-11
3.388863334e-11
3.080152485e-11
2.801714996e-11
2.550395877e-11
2.323387525e-11
2.118189491e-11
1.932573119e-11
1.764550461e-11
1.612346914e-11
1.474377116e-11
1.349223704e-11
1.235618568e-11
1.1324263e-11
1.03862957e-11
9.533161913e-12
8.75667672e-12
8.049490783e-12
7.405000454e-12
6.817268053e-12
6.280951095e-12
5.791239406e-12
5.34379923e-12
4.934723485e-12
4.560487491e-12
4.217909506e-12
3.904115561e-12
3.616508064e-12
3.352737787e-12
3.110678824e-12
2.88840621e-12
2.684175894e-12
2.496406815e-12
2.323664837e-12
2.164648355e-12
2.018175382e-12
1.883171958e-12
1.758661738e-12
1.64375664e-12
1.53764843e-12
1.439601155e-12
1.348944324e-12
1.265066772e-12
1.187411124e-12
1.115468806e-12
1.048775536e-12
9.869072595e-13
9.294764759e-13
8.761289129e-13
8.265405243e-13
7.804147697e-13
7.374801528e-13
6.974879905e-13
6.602103911e-13
6.254384202e-13
5.929804375e-13
5.626605857e-13
5.343174189e-13
5.078026559e-13
4.829800464e-13
4.597243398e-13
4.379203475e-13
4.174620878e-13
3.982520079e-13
3.80200275e-13
3.632241291e-13
3.472472938e-13
3.321994376e-13
3.180156828e-13
3.046361565e-13
2.920055809e-13
2.80072898e-13
2.687909272e-13
2.581160519e-13
2.480079321e-13
2.384292417e-13
2.293454284e-13
2.207244925e-13
2.125367854e-13
2.047548242e-13
1.973531213e-13
1.903080289e-13
1.835975957e-13
1.772014355e-13
1.711006063e-13
1.652774997e-13
1.597157384e-13
1.54400083e-13
1.493163452e-13
1.44451309e-13
1.397926573e-13
1.353289047e-13
1.310493357e-13
1.269439475e-13
1.230033976e-13
1.192189552e-13
1.155824564e-13
1.120862633e-13
1.087232258e-13
1.054866465e-13
1.023702481e-13
9.936814377e-14
9.647480942e-14
9.368505801e-14
9.099401606e-14
8.839710178e-14
8.589000481e-14
8.346866761e-14
8.112926814e-14
7.886820375e-14
7.668207652e-14
7.456767944e-14
7.252198359e-14
7.054212652e-14
6.862540112e-14
6.676924559e-14
6.497123402e-14
6.322906757e-14
6.154056642e-14
5.990366221e-14
5.831639102e-14
5.677688695e-14
5.528337589e-14
5.38341701e-14
5.242766274e-14
5.10623232e-14
4.973669246e-14
4.844937884e-14
4.71990541e-14
4.598444979e-14
4.480435373e-14
4.365760691e-14
4.254310039e-14
4.145977264e-14
4.040660687e-14
3.93826286e-14
3.838690337e-14
3.741853463e-14
3.64766617e-14
3.556045798e-14
3.466912911e-14
3.380191143e-14
3.29580704e-14
3.213689909e-14
3.133771693e-14
3.055986834e-14
2.980272157e-14
2.906566759e-14
2.834811902e-14
2.76495092e-14
2.696929111e-14
2.630693661e-14
2.56619355e-14
2.503379485e-14
2.442203817e-14
2.382620468e-14
2.324584874e-14
2.268053916e-14
2.212985869e-14
2.159340335e-14
2.107078189e-14
2.056161538e-14
2.006553667e-14
1.958218993e-14
1.911123024e-14
1.865232318e-14
1.820514438e-14
1.776937924e-14
1.734472253e-14
1.693087801e-14
1.65275582e-14
1.613448397e-14
1.575138434e-14
1.537799613e-14
1.501406372e-14
1.465933882e-14
1.431358015e-14
1.397655328e-14
1.364803041e-14
1.332779006e-14
1.301561696e-14
1.271130183e-14
1.241464114e-14
1.2125437e-14
1.184349693e-14
1.156863371e-14
1.130066522e-14
1.103941429e-14
1.078470854e-14
1.053638024e-14
1.029426616e-14
1.005820745e-14
9.82804953e-15
9.603641877e-15
9.384838036e-15
9.171495404e-15
8.963475158e-15
8.760642117e-15
8.562864694e-15
8.370014705e-15
8.181967389e-15
7.998601214e-15
7.819797831e-15
7.645441971e-15
7.475421356e-15
7.309626619e-15
7.147951263e-15
6.990291509e-15
6.836546287e-15
6.686617138e-15
6.5404081e-15
6.397825723e-15
6.25877893e-15
6.123179005e-15
5.990939497e-15
5.861976166e-15
5.736206936e-15
5.613551822e-15
5.493932856e-15
5.377274092e-15
5.263501502e-15
5.152542953e-15
5.044328138e-15
4.938788535e-15
4.835857354e-15
4.735469504e-15
4.637561548e-15
4.542071641e-15
4.448939527e-15
4.358106447e-15
4.269515162e-15
4.183109844e-15
4.098836081e-15
4.01664083e-15
3.936472387e-15
3.858280363e-15
3.782015629e-15
3.707630292e-15
3.635077655e-15
3.564312197e-15
3.495289542e-15
3.427966433e-15
3.362300698e-15
3.298251217e-15
3.235777889e-15
3.174841637e-15
3.115404353e-15
3.057428898e-15
3.000879048e-15
2.945719474e-15
2.891915749e-15
2.8394343e-15
2.788242394e-15
2.738308111e-15
2.689600339e-15
2.642088741e-15
2.59574373e-15
2.550536466e-15
2.506438822e-15
2.463423373e-15
2.421463374e-15
2.380532731e-15
2.340606028e-15
2.301658471e-15
2.263665883e-15
2.226604689e-15
2.190451901e-15
2.155185097e-15
2.12078242e-15
2.087222559e-15
2.054484721e-15
2.022548642e-15
1.991394554e-15
1.961003178e-15
1.931355727e-15
1.902433861e-15
1.874219708e-15
1.846695834e-15
1.819845251e-15
1.793651382e-15
1.768098048e-15
1.743169493e-15
1.718850338e-15
1.695125588e-15
1.671980629e-15
1.649401202e-15
1.627373395e-15
1.60588365e-15
1.584918741e-15
1.564465772e-15
1.544512162e-15
1.525045641e-15
1.50605425e-15
1.487526325e-15
1.469450484e-15
1.451815631e-15
1.434610941e-15
1.41782586e-15
1.401450087e-15
1.385473598e-15
1.369886587e-15
1.354679509e-15
1.33984305e-15
1.325368129e-15
1.311245883e-15
1.297467668e-15
1.284025064e-15
1.270909857e-15
1.25811403e-15
1.245629757e-15
1.233449419e-15
1.221565586e-15
1.209970995e-15
1.198658578e-15
1.187621434e-15
1.17685284e-15
1.166346225e-15
1.15609519e-15
1.146093496e-15
1.136335059e-15
1.126813935e-15
1.117524331e-15
1.108460598e-15
1.099617229e-15
1.090988851e-15
1.082570221e-15
1.074356225e-15
1.066341879e-15
1.05852231e-15
1.050892782e-15
1.043448669e-15
1.036185463e-15
1.02909876e-15
1.02218427e-15
1.0154378e-15
1.00885527e-15
1.002432701e-15
9.96166204e-16
9.900519924e-16
9.840863606e-16
9.782657055e-16
9.725865122e-16
9.670453489e-16
9.616388736e-16
9.563638237e-16
9.512170143e-16
9.461953385e-16
9.412957686e-16
9.365153455e-16
9.318511884e-16
9.273004913e-16
9.228605104e-16
9.185285675e-16
9.14302056e-16
9.101784281e-16
9.06155202e-16
9.022299492e-16
8.984003091e-16
8.946639757e-16
8.91018699e-16
8.874622842e-16
8.839925854e-16
8.806075151e-16
8.773050315e-16
8.740831429e-16
8.709399128e-16
8.678734382e-16
8.648818648e-16
8.619633897e-16
8.591162487e-16
8.563387167e-16
8.536291138e-16
8.509858017e-16
8.484071761e-16
8.458916663e-16
8.434377449e-16
8.410439172e-16
8.387087209e-16
8.364307238e-16
8.342085336e-16
8.320407801e-16
8.299261318e-16
8.278632794e-16
8.25850946e-16
8.238878859e-16
8.219728749e-16
8.201047194e-16
8.182822444e-16
8.165043039e-16
8.14769776e-16
8.130775609e-16
8.11426583e-16
8.09815794e-16
8.082441627e-16
8.067106822e-16
8.052143665e-16
8.037542532e-16
8.023294087e-16
8.00938919e-16
7.995818954e-16
7.982574745e-16
7.969648212e-16
7.957031299e-16
7.944716218e-16
7.93269547e-16
7.920961843e-16
7.909508439e-16
7.898328562e-16
7.887415838e-16
7.876763993e-16
7.866366877e-16
7.783772153e-16
7.698335176e-16
7.645358401e-16
7.615819543e-16
7.604013894e-16
7.606150781e-16
7.619643771e-16
7.642724831e-16
7.674203054e-16
7.713299432e-16
7.759535193e-16
7.812654198e-16
7.872561115e-16
7.939284979e-16
8.012948557e-16
8.09374769e-16
8.1819368e-16
8.277819134e-16
8.38173825e-16
8.494073885e-16
8.615237334e-16
8.745669337e-16
8.885837998e-16
9.036236172e-16
9.19738012e-16
9.369807655e-16
9.554075585e-16
9.750757554e-16
9.960440764e-16
1.018372233e-15
1.042120488e-15
1.067349152e-15
1.094117965e-15
1.1224854e-15
1.152507877e-15
1.18423884e-15
1.217727776e-15
1.253019094e-15
1.290150922e-15
1.329153819e-15
1.370049412e-15
1.412848972e-15
1.457551988e-15
1.504144703e-15
1.552598735e-15
1.602869757e-15
1.654896311e-15
1.708598816e-15
1.763878771e-15
1.820618304e-15
1.878680001e-15
1.937907144e-15
1.99812435e-15
2.059138668e-15
2.120741112e-15
2.182708653e-15
2.244806636e-15
2.306791612e-15
2.368414502e-15
2.42942399e-15
2.48957019e-15
2.548608291e-15
2.606302302e-15
2.66242858e-15
2.716779204e-15
2.769164995e-15
2.819418138e-15
2.867394326e-15
2.912974384e-15
2.956065317e-15
2.996600779e-15
3.034540992e-15
3.069872101e-15
3.102605044e-15
3.132773985e-15
3.160434362e-15
3.185660658e-15
3.208543951e-15
3.229189319e-15
3.247713207e-15
3.264240791e-15
3.278903434e-15
3.291836257e-15
3.303175898e-15
3.313058471e-15
3.321617775e-15
3.328983722e-15
3.335281045e-15
3.340628237e-15
3.345136739e-15
3.348910357e-15
3.352044882e-15
3.354627906e-15
3.3567388e-15
3.358448836e-15
3.359821437e-15
3.360912517e-15
3.361770902e-15
3.362438816e-15
3.362952395e-15
3.363342237e-15
3.363633953e-15
3.363848721e-15
3.364003828e-15
3.364113183e-15
3.364187813e-15
3.364236312e-15
3.364265266e-15
3.364279622e-15
3.36428303e-15
3.364278129e-15
3.364266798e-15
3.364250367e-15
3.364229786e-15
3.364205759e-15
3.364178845e-15
3.364149535e-15
3.3641183e-15
3.364085617e-15
3.364051984e-15
3.364017915e-15
3.363983933e-15
3.363950555e-15
3.36391827e-15
3.363887524e-15
3.3638587e-15
3.363832104e-15
3.363807958e-15
3.363786394e-15
3.363767448e-15
3.363751074e-15
3.363737143e-15
3.363725461e-15
3.363715778e-15
3.363707809e-15
3.363701243e-15
3.363695763e-15
3.363691062e-15
3.363686851e-15
3.363682873e-15
3.363678908e-15
3.363674781e-15
3.363670364e-15
3.363665573e-15
3.363660368e-15
3.363654748e-15
3.363648745e-15
3.36364242e-15
3.363635851e-15
3.363629128e-15
3.363622348e-15
3.363615606e-15
3.363608991e-15
3.363602583e-15
3.363596446e-15
3.363590633e-15
3.363585178e-15
3.363580102e-15
3.36357541e-15
3.363571097e-15
3.363567146e-15
3.363563535e-15
3.363560235e-15
3.363557215e-15
3.363554445e-15
3.363551895e-15
3.363549537e-15
3.363547348e-15
3.363545311e-15
3.36354341e-15
3.363541635e-15
3.363539979e-15
3.363538441e-15
3.363537019e-15
3.363535714e-15
3.36353453e-15
3.363533471e-15
3.363532539e-15
3.363531738e-15
3.363531071e-15
3.363530541e-15
3.363530149e-15
3.363529897e-15
3.363529785e-15
3.363529813e-15
3.363529981e-15
3.363530289e-15
3.363530735e-15
3.363531318e-15
3.363532036e-15
3.363532886e-15
3.363533866e-15
3.363534971e-15
3.363536197e-15
3.363537538e-15
3.363538988e-15
3.363540537e-15
3.363542178e-15
3.3635439e-15
3.363545692e-15
3.363547542e-15
3.363549436e-15
3.363551362e-15
3.363553305e-15
3.363555251e-15
3.363557185e-15
3.363559094e-15
3.363560964e-15
3.36356278e-15
3.363564531e-15
3.363566204e-15
3.363567787e-15
3.363569271e-15
3.363570646e-15
3.363571904e-15
3.363573039e-15
3.363574043e-15
3.363574914e-15
3.363575646e-15
3.363576238e-15
3.363576689e-15
3.363576997e-15
3.363577165e-15
3.363577193e-15
3.363577084e-15
3.363576841e-15
3.363576468e-15
3.363575969e-15
3.363575348e-15
3.363574611e-15
3.363573763e-15
3.36357281e-15
3.363571757e-15
3.36357061e-15
3.363569375e-15
3.363568058e-15
3.363566664e-15
3.363565199e-15
3.36356367e-15
3.36356208e-15
3.363560437e-15
3.363558744e-15
3.363557008e-15
3.363555235e-15
3.36355343e-15
3.363551603e-15
3.363549765e-15
3.36354794e-15
3.363546169e-15
3.363544542e-15
)
;

boundaryField
{
    inlet
    {
        type            fixedValue;
        value           uniform 0;
    }
    outlet
    {
        type            zeroGradient;
    }
    wall
    {
        type            empty;
    }
}


// ************************************************************************* //
