/*--------------------------------*- C++ -*----------------------------------*\
  =========                 |
  \\      /  F ield         | OpenFOAM: The Open Source CFD Toolbox
   \\    /   O peration     | Website:  https://openfoam.org
    \\  /    A nd           | Version:  7
     \\/     M anipulation  |
\*---------------------------------------------------------------------------*/
FoamFile
{
    version     2.0;
    format      ascii;
    class       volScalarField;
    location    "0.000558243009";
    object      chemistryhsSource;
}
// * * * * * * * * * * * * * * * * * * * * * * * * * * * * * * * * * * * * * //

dimensions      [1 -1 -3 0 0 0 0];

internalField   nonuniform List<scalar> 
1500
(
2.385572759e-08
3.780283451e-07
1.693641584e-06
4.035568416e-06
6.587151715e-06
8.542398683e-06
9.698370357e-06
1.026075651e-05
1.049618631e-05
1.058351043e-05
1.061282895e-05
1.062199146e-05
1.062472639e-05
1.062565156e-05
1.062607188e-05
1.06262857e-05
1.062644768e-05
1.062656196e-05
1.062666338e-05
1.062678278e-05
1.062681129e-05
1.062685994e-05
1.062687479e-05
1.062691177e-05
1.062694603e-05
1.062694652e-05
1.062694653e-05
1.062691249e-05
1.062691078e-05
1.062693214e-05
1.062687435e-05
1.062689862e-05
1.06268985e-05
1.06268748e-05
1.062693355e-05
1.062691247e-05
1.062694818e-05
1.06269596e-05
1.062699671e-05
1.062700945e-05
1.062704698e-05
1.062705964e-05
1.062709741e-05
1.062710963e-05
1.062714574e-05
1.062718182e-05
1.062716069e-05
1.062719503e-05
1.062719713e-05
1.062723066e-05
1.062723203e-05
1.062723281e-05
1.06272329e-05
1.062723295e-05
1.062723247e-05
1.062723253e-05
1.062723198e-05
1.062723058e-05
1.062717418e-05
1.062719836e-05
1.062719717e-05
1.062719576e-05
1.062721916e-05
1.062716194e-05
1.062716072e-05
1.062718379e-05
1.062718118e-05
1.062714815e-05
1.062714514e-05
1.062711117e-05
1.062713333e-05
1.062709915e-05
1.062709612e-05
1.062706114e-05
1.062708241e-05
1.0627048e-05
1.062706875e-05
1.062703444e-05
1.062697547e-05
1.062699717e-05
1.062701953e-05
1.062696145e-05
1.062696064e-05
1.062698421e-05
1.062698346e-05
1.062695964e-05
1.062696097e-05
1.062696183e-05
1.062699624e-05
1.062697434e-05
1.062703385e-05
1.062706895e-05
1.062702414e-05
1.062706046e-05
1.062709647e-05
1.062713325e-05
1.062714527e-05
1.062718308e-05
1.062719469e-05
1.06272318e-05
1.062726821e-05
1.06272237e-05
1.062725997e-05
1.062729501e-05
1.06273309e-05
1.06273077e-05
1.062734272e-05
1.062734479e-05
1.062732255e-05
1.062737948e-05
1.062738031e-05
1.062738092e-05
1.062738142e-05
1.062738163e-05
1.062738159e-05
1.062738071e-05
1.062738024e-05
1.062737941e-05
1.062732316e-05
1.062734665e-05
1.062734593e-05
1.062734444e-05
1.062734327e-05
1.062736755e-05
1.062731037e-05
1.062730902e-05
1.062730768e-05
1.06273317e-05
1.062732998e-05
1.062727341e-05
1.062729705e-05
1.062729591e-05
1.062729419e-05
1.062731928e-05
1.062726133e-05
1.062726093e-05
1.062728361e-05
1.062728215e-05
1.062722511e-05
1.062724831e-05
1.062724727e-05
1.062724467e-05
1.062721165e-05
1.062721023e-05
1.062723326e-05
1.062719365e-05
1.062719781e-05
1.062719598e-05
1.062716231e-05
1.062718404e-05
1.062712532e-05
1.062714717e-05
1.062716908e-05
1.06271097e-05
1.062707549e-05
1.062709669e-05
1.062706251e-05
1.06270835e-05
1.062704892e-05
1.062704595e-05
1.062701142e-05
1.062703348e-05
1.062699933e-05
1.062699636e-05
1.062701839e-05
1.062696063e-05
1.062698356e-05
1.062698241e-05
1.062692565e-05
1.062692483e-05
1.06269495e-05
1.062692461e-05
1.062692484e-05
1.062698099e-05
1.062698323e-05
1.06269603e-05
1.06269625e-05
1.062699624e-05
1.062697461e-05
1.062703348e-05
1.062706888e-05
1.062704807e-05
1.0627084e-05
1.062709493e-05
1.062707442e-05
1.062711131e-05
1.062714734e-05
1.062718338e-05
1.062719436e-05
1.062717366e-05
1.06272093e-05
1.062724405e-05
1.062724726e-05
1.06272808e-05
1.062728281e-05
1.062725918e-05
1.062725946e-05
1.062725938e-05
1.062727075e-05
1.062728095e-05
1.062722334e-05
1.062724494e-05
1.062721009e-05
1.062723059e-05
1.062719511e-05
1.062715934e-05
1.062714708e-05
1.062710969e-05
1.062709684e-05
1.062705858e-05
1.062704647e-05
1.062703396e-05
1.062699653e-05
1.062695966e-05
1.062692475e-05
1.062694611e-05
1.062694416e-05
1.062696935e-05
1.062694548e-05
1.062694698e-05
1.062692501e-05
1.062698235e-05
1.062698282e-05
1.062698135e-05
1.062694482e-05
1.062689775e-05
1.062684525e-05
1.062678061e-05
1.062662538e-05
1.062654561e-05
1.062643292e-05
1.062626292e-05
1.062618331e-05
1.062608287e-05
1.062599768e-05
1.062596165e-05
1.062599905e-05
1.062606246e-05
1.06261999e-05
1.062636032e-05
1.062655872e-05
1.062679364e-05
1.062707315e-05
1.062739087e-05
1.06280069e-05
1.062916309e-05
1.063135509e-05
1.063532247e-05
1.064161495e-05
1.064990652e-05
1.065387297e-05
1.0654846e-05
1.065583376e-05
1.065692548e-05
1.065800895e-05
1.065914144e-05
1.066034662e-05
1.066157943e-05
1.066291519e-05
1.066427587e-05
1.06656878e-05
1.066712687e-05
1.066870594e-05
1.067031065e-05
1.067197669e-05
1.067373136e-05
1.067557062e-05
1.067744724e-05
1.067943733e-05
1.068152883e-05
1.068374139e-05
1.068599883e-05
1.068839287e-05
1.069087705e-05
1.06934688e-05
1.069621762e-05
1.069907893e-05
1.070202608e-05
1.070510817e-05
1.070836814e-05
1.071180481e-05
1.071532995e-05
1.071906732e-05
1.072296485e-05
1.072705291e-05
1.073130192e-05
1.07358072e-05
1.074048229e-05
1.074537562e-05
1.075049425e-05
1.075587913e-05
1.076146071e-05
1.076737646e-05
1.077349583e-05
1.077995982e-05
1.078672173e-05
1.079375844e-05
1.080119934e-05
1.080894856e-05
1.08170762e-05
1.082552768e-05
1.083441239e-05
1.084372449e-05
1.08534858e-05
1.086370772e-05
1.087441978e-05
1.088562364e-05
1.089730141e-05
1.090956711e-05
1.092245364e-05
1.093587476e-05
1.094990533e-05
1.096464785e-05
1.098009082e-05
1.09962112e-05
1.101312853e-05
1.10307389e-05
1.104926541e-05
1.106860755e-05
1.108883694e-05
1.111002861e-05
1.113213352e-05
1.115530425e-05
1.117953287e-05
1.120489167e-05
1.123138261e-05
1.125907118e-05
1.128805017e-05
1.131835505e-05
1.134998654e-05
1.138308057e-05
1.141764656e-05
1.145377869e-05
1.149155726e-05
1.153101244e-05
1.157223893e-05
1.161532894e-05
1.166032313e-05
1.170724645e-05
1.175635296e-05
1.180757813e-05
1.186105777e-05
1.191688341e-05
1.197521211e-05
1.203608294e-05
1.209956742e-05
1.216586399e-05
1.223505114e-05
1.230723364e-05
1.238255711e-05
1.246109225e-05
1.254302923e-05
1.262852302e-05
1.271769904e-05
1.281068097e-05
1.290761228e-05
1.300876761e-05
1.311419446e-05
1.322406817e-05
1.333866839e-05
1.345805219e-05
1.358256212e-05
1.371234716e-05
1.384755894e-05
1.398848917e-05
1.413536493e-05
1.428838394e-05
1.444785237e-05
1.461395589e-05
1.478702267e-05
1.496731765e-05
1.515521789e-05
1.535085429e-05
1.555465979e-05
1.576696488e-05
1.598807256e-05
1.621840066e-05
1.645828267e-05
1.670805257e-05
1.696817751e-05
1.723911956e-05
1.752117816e-05
1.781496404e-05
1.812085428e-05
1.843935888e-05
1.87709764e-05
1.911632631e-05
1.947581697e-05
1.985015503e-05
2.023984937e-05
2.064561456e-05
2.106800559e-05
2.15077192e-05
2.196550957e-05
2.244209369e-05
2.293816954e-05
2.34546395e-05
2.399217938e-05
2.455178082e-05
2.513418358e-05
2.574041943e-05
2.637143998e-05
2.702826841e-05
2.771178167e-05
2.842321665e-05
2.916358589e-05
2.993408316e-05
3.073589407e-05
3.157027878e-05
3.243850099e-05
3.334191404e-05
3.428192371e-05
3.525994683e-05
3.627752324e-05
3.73361376e-05
3.843741532e-05
3.958308059e-05
4.077472696e-05
4.201425023e-05
4.330346593e-05
4.464423848e-05
4.603870069e-05
4.748876678e-05
4.899653915e-05
5.056434471e-05
5.219432037e-05
5.388898983e-05
5.565064804e-05
5.748191854e-05
5.938526656e-05
6.136364393e-05
6.341960485e-05
6.555621546e-05
6.777629386e-05
7.008311482e-05
7.247971517e-05
7.496942915e-05
7.755584815e-05
8.024227298e-05
8.303249918e-05
8.593023728e-05
8.893955541e-05
9.206431609e-05
9.530889328e-05
9.867736738e-05
0.0001021744772
0.0001058048128
0.0001095730493
0.0001134843354
0.0001175436342
0.0001217564302
0.0001261283251
0.00013066479
0.0001353720034
0.0001402559471
0.0001453230783
0.0001505801328
0.0001560337925
0.0001616911542
0.0001675598609
0.0001736476631
0.0001799621956
0.0001865120282
0.0001933056288
0.0002003521399
0.0002076607327
0.0002152414283
0.0002231041776
0.0002312593111
0.0002397183249
0.0002484925968
0.0002575937861
0.0002670345965
0.0002768280952
0.0002869879288
0.0002975285628
0.0003084644455
0.0003198114894
0.0003315857908
0.000343804664
0.0003564860071
0.0003696481243
0.000383311394
0.0003974957123
0.0004122232983
0.0004275163339
0.0004433989324
0.00045989587
0.0004770337797
0.0004948398937
0.0005133435477
0.0005325753394
0.0005525673326
0.0005733533966
0.0005949690859
0.0006174521541
0.0006408422506
0.0006651808226
0.0006905119878
0.000716882149
0.0007443408115
0.0007729389728
0.0008027315882
0.0008337768109
0.0008661350811
0.0008998707741
0.0009350527601
0.0009717525791
0.001010047046
0.001050016525
0.00109174695
0.001135329013
0.00118085864
0.001228438457
0.001278176105
0.001330186362
0.001384591117
0.001441520295
0.001501110961
0.001563509895
0.001628872947
0.001697365293
0.001769163989
0.00184445721
0.001923445637
0.002006343395
0.002093379609
0.002184798876
0.002280862612
0.002381850901
0.002488064247
0.002599824551
0.002717477581
0.002841394355
0.002971975684
0.003109651399
0.003254886895
0.003408183721
0.003570084908
0.003741177407
0.003922099739
0.004113543724
0.004316264143
0.004531081739
0.004758893992
0.005000682439
0.005257522347
0.005530595512
0.005821202554
0.006130776301
0.006460901911
0.006813333741
0.007190021611
0.007593132304
0.008025083363
0.008488578969
0.008986647734
0.009522693201
0.01010054778
0.01072453943
0.01139956511
0.01213118496
0.01292572418
0.01379039459
0.01473344822
0.0157643432
0.0168939574
0.01813482534
0.01950143388
0.0210105748
0.02268175179
0.02453769059
0.0266049373
0.0289145808
0.03150313571
0.03441293452
0.03769607414
0.0414119973
0.04563206352
0.05044269505
0.05594228321
0.06225362231
0.06952218012
0.07792320512
0.08766796174
0.09901072386
0.1122622085
0.1277983099
0.1460771166
0.1676578239
0.1932232503
0.2236129465
0.2598593162
0.3032283381
0.3552907542
0.417977717
0.4936900448
0.58540143
0.6968067415
0.8325068473
0.9982352766
1.201146774
1.450186535
1.756547941
2.134260031
2.600913317
3.178611706
3.895131252
4.785424539
5.893515932
7.274902473
8.99959468
11.15598787
13.85576086
17.24012314
21.48771535
26.82469302
33.53751457
41.98922963
52.64019375
66.07442728
83.03320912
104.4578024
131.5439298
165.8111607
209.1913395
264.141217
333.8049469
422.10938
534.1352373
676.3717764
857.0186657
1086.456022
1378.127823
1748.920965
2220.5037
2820.434729
3583.899301
4555.652687
5792.792452
7368.071992
9374.200707
11929.24353
15183.57922
19328.58384
24607.78574
31330.82437
39891.1669
50788.31781
64655.76468
82296.15093
104724.8353
133224.4577
169412.3999
215324.0761
273515.0388
347185.6058
440331.8673
557927.0012
706137.2759
892576.5624
1126602.522
1419656.874
1785649.432
2241383.731
2807018.242
3506552.731
4368325.096
5425498.92
6716519.336
8285513.345
10182615.23
12464207.81
15193090.73
18438620.33
22276908.09
26791230.87
32072880.98
38222778.57
45354278.94
53597735.47
63107530.61
74072471.47
86730685.52
101390479.1
118459117.2
138482301.8
162198501
190614450.6
225111700.5
267600723.3
320750670.1
388341366.4
475816264.2
591169045
746383524.2
959771823.8
1259641876
1690422499
2319907241
3255091514
4649759278
6710574096
9620256597
1.357648806e+10
1.844923029e+10
2.342887342e+10
2.701957473e+10
2.835083017e+10
2.977151371e+10
3.33682306e+10
3.850476002e+10
4.41932612e+10
5.041732558e+10
5.776786131e+10
6.640005111e+10
7.744315706e+10
9.270018396e+10
1.154458436e+11
1.486131887e+11
1.963171752e+11
2.62112341e+11
3.433439e+11
4.420631505e+11
5.561374893e+11
6.820778106e+11
8.14409188e+11
9.482878879e+11
1.076668009e+12
1.187077946e+12
1.272927049e+12
1.331645702e+12
1.35510939e+12
1.345819853e+12
1.3079103e+12
1.247330058e+12
1.171721823e+12
1.08710427e+12
9.987863866e+11
9.117944893e+11
8.292170362e+11
7.52626495e+11
6.828935597e+11
6.203900102e+11
5.647334377e+11
5.155275637e+11
4.719790875e+11
4.338635263e+11
4.001297595e+11
3.700648795e+11
3.433665455e+11
3.195619842e+11
2.982458656e+11
2.790748454e+11
2.617592842e+11
2.46058808e+11
2.317597281e+11
2.186915794e+11
2.067065318e+11
1.956789059e+11
1.85501538e+11
1.760827117e+11
1.67343615e+11
1.592162292e+11
1.516415799e+11
1.445682908e+11
1.37951387e+11
1.317513067e+11
1.259330836e+11
1.204656695e+11
1.153213711e+11
1.104753847e+11
1.059054024e+11
1.015912873e+11
9.751479846e+10
9.365935832e+10
9.00098564e+10
8.655248155e+10
8.327457843e+10
8.016452411e+10
7.721162137e+10
7.440600601e+10
7.173856592e+10
6.920087015e+10
6.678510642e+10
6.448402579e+10
6.229089358e+10
6.019944556e+10
5.820384877e+10
5.629866629e+10
5.447882556e+10
5.273958975e+10
5.107653177e+10
4.948551076e+10
4.79626506e+10
4.650432039e+10
4.510711655e+10
4.376784647e+10
4.248351352e+10
4.125130325e+10
4.006857072e+10
3.893282887e+10
3.784173773e+10
3.679309451e+10
3.578482446e+10
3.481497235e+10
3.388169463e+10
3.29832522e+10
3.211800364e+10
3.128439897e+10
3.048097384e+10
2.970634417e+10
2.895920108e+10
2.823830627e+10
2.754248769e+10
2.687063546e+10
2.622169812e+10
2.559467912e+10
2.498863355e+10
2.440266505e+10
2.383592301e+10
2.328759984e+10
2.27569285e+10
2.224318017e+10
2.174566208e+10
2.126371542e+10
2.079671347e+10
2.034405979e+10
1.990518652e+10
1.947955284e+10
1.906664346e+10
1.866596723e+10
1.827705587e+10
1.789946268e+10
1.753276147e+10
1.71765454e+10
1.683042602e+10
1.649403227e+10
1.61670096e+10
1.584901911e+10
1.553973676e+10
1.523885278e+10
1.494607027e+10
1.466110556e+10
1.438368689e+10
1.4113554e+10
1.385045753e+10
1.359415853e+10
1.334442792e+10
1.310104603e+10
1.286380216e+10
1.263249413e+10
1.24069279e+10
1.218691717e+10
1.197228305e+10
1.176285365e+10
1.155846386e+10
1.135895493e+10
1.116417427e+10
1.097397513e+10
1.078821633e+10
1.060676203e+10
1.042948151e+10
1.02562489e+10
1.0086943e+10
9921447079
9759648665
9601439371
9446714721
9295373984
9147320014
9002459103
8860700838
8721957960
8586146243
8453184360
8322993774
8195498622
8070625604
7948303888
7828465009
7711042771
7595973169
7483194291
7372646248
7264271088
7158012728
7053816877
6951630976
6851404123
6753087021
6656631911
6561992517
6469123995
6377982876
6288527019
6200715562
6114508874
6029868516
5946757193
5865138718
5784977970
5706240859
5628894288
5552906120
5478245145
5404881047
5332784377
5261926518
5192279662
5123816781
5056511599
4990338572
4925272859
4861290301
4798367400
4736481294
4675609740
4615731092
4556824283
4498868807
4441844698
4385732517
4330513333
4276168710
4222680687
4170031768
4118204904
4067183482
4016951310
3967492606
3918791984
3870834443
3823605354
3777090453
3731275823
3686147893
3641693419
3597899482
3554753472
3512243083
3470356306
3429081414
3388406960
3348321767
3308814919
3269875757
3231493868
3193659081
3156361459
3119591292
3083339092
3047595587
3012351715
2977598616
2943327630
2909530290
2876198315
2843323611
2810898258
2778914510
2747364793
2716241693
2685537959
2655246496
2625360359
2595872752
2566777023
2538066661
2509735293
2481776677
2454184702
2426953384
2400076865
2373549403
2347365377
2321519280
2296005717
2270819401
2245955153
2221407897
2197172659
2173244563
2149618830
2126290775
2103255807
2080509421
2058047204
2035864825
2013958040
1992322683
1970954670
1949849994
1929004726
1908415010
1888077062
1867987170
1848141690
1828537049
1809169737
1790036309
1771133386
1752457649
1734005840
1715774759
1697761266
1679962275
1662374759
1644995742
1627822303
1610851571
1594080727
1577507001
1561127673
1544940068
1528941560
1513129568
1497501553
1482055024
1466787529
1451696660
1436780048
1422035367
1407460327
1393052678
1378810209
1364730743
1350812141
1337052299
1323449149
1310000654
1296704812
1283559655
1270563244
1257713674
1245009068
1232447583
1220027401
1207746736
1195603829
1183596950
1171724395
1159984486
1148375574
1136896033
1125544265
1114318692
1103217765
1092239957
1081383764
1070647705
1060030321
1049530176
1039145856
1028875966
1018719135
1008674008
998739255.2
988913562.2
979195636.2
969584117.5
960077922.2
950675725.7
941376308.3
932178467.7
923081019.1
914082794.4
905182642.4
896379428.2
887672032.7
879059352.9
870540301.2
862113805.1
853778807
845534264.1
837379148.1
829312444.6
821333153.2
813440287.3
805632873.5
797909951.7
790270574.9
782713808.4
775238730.5
767844431.5
760530013.9
753294592
746137291.8
739057250.8
732053617.7
725125552.4
718272225.5
711492818.5
704786523.2
698152542.1
691590087.5
685098381.9
678676657.5
672324156.5
666040130
659823839.1
653674553.6
647591552.6
641574124.1
635621564.6
629733179.4
623908282.2
618146195
612446248
606807779.4
601230135.4
595712669.8
590254744.3
584855727.9
579514997.1
574231935.6
569005934.6
563836391.8
558722712.2
553664307.6
548660596.4
543711003.6
538814960.8
533971905.8
529181283.1
524442542.8
519755141.4
515118541.5
510532211.4
505995625.1
501508262.5
497069609.1
492679155.6
488336398.7
484040839.8
479791986.1
475589349.4
471432447.1
467320801.4
463253939.2
459231392.5
455252698.1
451317397.2
447425035.7
443575164.1
439767337.4
436001114.7
432276059.6
428591739.9
424947727.6
421343598.5
417778932.8
414253314.3
410766330.9
407317574.3
403906639.6
400533126
397196636.2
393896776.1
390633155.4
387405387.2
384213087.8
381055876.8
377933377.2
374845214.8
371791018.9
368770421.4
365783057.5
362828565.2
359906585.3
357016761.4
354158739.8
351332169.6
348536702.2
345771991.9
343037695.2
340333471.1
337658981
335013888.6
332397859.8
329810562.6
327251667.2
324720845.9
322217772.8
319742124.1
317293577.9
314871813.9
312476513.7
310107360.5
307764039.2
305446236.1
303153639.1
300885937.5
298642821.9
296423984.2
294229117.7
292057916.4
289910076
287785292.6
285683263.8
283603687.7
281546263.2
279510690.3
277496669.4
275503901.3
273532087.8
271580930.9
269650132.9
267739396.7
265848425.1
263976921.3
262124588.7
260291130.4
258476249.7
256679649.6
254901033.1
253140102.8
251396560.9
249670109.1
247960448.5
246267279.5
244590301.7
242929296
241283796.2
239653578.5
238038336.9
236437762.5
234851544.2
233279367
231720912.9
230175858.8
228643877.4
227124636.1
225617797.5
224123021
222639964.2
221168288.7
219707665.5
218257790.3
216818397
215389289.5
213970382.2
212561706
211163688.6
209776701.9
208402149.5
207041479.1
205697320.3
204372815.9
203069177.3
192660402.7
178077429.5
164525106.4
151994530
140354255.5
129486602
119293307.8
109693786.2
100623964.3
92034039.85
83886221.93
76152745.56
68814098.68
61857446.6
55275222.07
49063860.72
43222669.6
37752821.38
32656462.31
27935929.05
23593072.96
19628684.78
16042016.58
12830401.28
9988961.165
7510405.363
5384911.894
3600087.07
2141001.877
990293.67
128335.8724
-466542.4649
-817780.5074
-950275.2305
-890030.7297
-663787.4056
-298630.5633
178404.4747
740730.3677
1362592.522
2019436.182
2688246.597
3347854.831
3979202.146
4565556.872
5092680.888
5548939.497
5925355.412
6215605.263
6415960.468
6525174.59
6544321.302
6476592.177
6327052.663
6102376.572
5810554.233
5460592.665
5062212.582
4625549.064
4160868.516
3678303.101
3187611.574
2697972.384
2217807.985
1754645.738
1315015.272
904381.366
527110.3056
186469.8706
-115345.728
-377161.8784
-598751.8362
-780746.9074
-924534.7562
-1032148.496
-1106152.237
-1149524.603
-1165544.453
-1157681.719
-1129495.03
-1084537.835
-1026275.157
-958011.7557
-882831.9867
-803551.6443
-722682.2454
-642407.201
-564568.6856
-490665.3438
-421859.139
-358990.3296
-302599.822
-252956.6575
-210089.9553
-173823.8137
-143813.6625
-119582.8508
-100558.649
-86106.02773
-75558.70657
-68247.28877
-63522.75137
-60776.0665
-59453.61057
-59067.702
-59203.58425
-59521.95359
-59758.58745
-59720.71142
-59281.42393
-58371.45356
-56970.85287
-55099.2339
-52805.99265
-50161.01206
-47245.92241
-44146.229
-40944.69294
-37716.1121
-34523.53191
-31415.41331
-28424.67786
-25568.49035
-22849.49697
-20257.12908
-17770.39071
-15360.46106
-12993.52998
-10633.83693
-8246.440146
-5799.222734
-3265.459472
-624.6506937
2136.107215
5022.004386
8030.484843
11151.73393
14369.78813
17663.4587
21007.8767
24375.68705
27738.78197
31069.18893
34340.80284
37529.96707
40615.95077
43582.13708
46415.77287
49107.8829
51653.37358
54050.314
56299.67527
58404.48703
60369.45505
62200.23672
63902.60426
65482.41907
66944.88011
68294.37629
69534.21973
70666.7924
71693.31312
72614.22887
73429.26452
74137.78806
74738.90861
75231.993
75616.74812
75893.41588
76063.11307
76127.81208
76090.55443
75955.35017
75727.16217
75411.93036
75016.28324
74547.62438
74013.79448
73423.01366
72783.67691
72104.2035
71392.97436
70657.9537
69906.91106
69147.08727
68385.13638
67627.1041
66878.27297
66143.26997
65425.72825
64728.5426
64053.64325
63401.91334
62773.31447
62166.7407
61579.87824
61009.49634
60451.13869
59899.3616
59347.43056
58787.80467
58211.8152
57610.00215
56972.06064
56287.03322
55543.33815
54729.3272
53832.75853
52841.64576
51744.20725
50528.94113
49185.22317
47702.93827
46073.18409
44288.33767
42342.05064
40229.60999
37948.00835
35496.14509
32874.60656
30086.13843
27135.46006
24029.31679
20776.33368
17387.19282
13874.28868
10251.79396
6535.615479
2742.973827
-1107.617365
-4996.329303
-8902.524911
-12804.70132
-16680.71888
-20508.01306
-24263.67196
-27924.76235
-31468.23107
-34871.46903
-38112.0459
-41168.41509
-44019.63547
-46645.90213
-49028.44065
-51149.66645
-52992.82146
-54540.7922
-55772.84272
-56658.63088
-57196.4852
)
;

boundaryField
{
    inlet
    {
        type            calculated;
        value           uniform 0;
    }
    outlet
    {
        type            calculated;
        value           uniform 0;
    }
    wall
    {
        type            empty;
    }
}


// ************************************************************************* //
