/*--------------------------------*- C++ -*----------------------------------*\
  =========                 |
  \\      /  F ield         | OpenFOAM: The Open Source CFD Toolbox
   \\    /   O peration     | Website:  https://openfoam.org
    \\  /    A nd           | Version:  7
     \\/     M anipulation  |
\*---------------------------------------------------------------------------*/
FoamFile
{
    version     2.0;
    format      ascii;
    class       volScalarField;
    location    "0.000558243009";
    object      CO;
}
// * * * * * * * * * * * * * * * * * * * * * * * * * * * * * * * * * * * * * //

dimensions      [0 0 0 0 0 0 0];

internalField   nonuniform List<scalar> 
1500
(
1.073787088e-10
4.204235499e-10
8.687199294e-10
1.309791775e-09
1.644181514e-09
1.852391962e-09
1.962895119e-09
2.0140568e-09
2.035062943e-09
2.042811589e-09
2.045407621e-09
2.046204915e-09
2.04643116e-09
2.04649088e-09
2.046505629e-09
2.046509054e-09
2.046509806e-09
2.046509962e-09
2.046509993e-09
2.046509999e-09
2.04651e-09
2.04651e-09
2.04651e-09
2.04651e-09
2.04651e-09
2.04651e-09
2.04651e-09
2.04651e-09
2.04651e-09
2.04651e-09
2.04651e-09
2.04651e-09
2.04651e-09
2.04651e-09
2.04651e-09
2.04651e-09
2.04651e-09
2.04651e-09
2.04651e-09
2.04651e-09
2.04651e-09
2.04651e-09
2.04651e-09
2.04651e-09
2.04651e-09
2.04651e-09
2.04651e-09
2.04651e-09
2.04651e-09
2.04651e-09
2.04651e-09
2.04651e-09
2.04651e-09
2.04651e-09
2.04651e-09
2.04651e-09
2.04651e-09
2.04651e-09
2.04651e-09
2.04651e-09
2.04651e-09
2.04651e-09
2.04651e-09
2.04651e-09
2.04651e-09
2.04651e-09
2.04651e-09
2.04651e-09
2.04651e-09
2.04651e-09
2.04651e-09
2.04651e-09
2.04651e-09
2.04651e-09
2.04651e-09
2.04651e-09
2.04651e-09
2.04651e-09
2.04651e-09
2.04651e-09
2.04651e-09
2.04651e-09
2.04651e-09
2.04651e-09
2.04651e-09
2.04651e-09
2.04651e-09
2.04651e-09
2.04651e-09
2.04651e-09
2.04651e-09
2.04651e-09
2.04651e-09
2.04651e-09
2.04651e-09
2.04651e-09
2.04651e-09
2.04651e-09
2.04651e-09
2.04651e-09
2.04651e-09
2.04651e-09
2.04651e-09
2.04651e-09
2.04651e-09
2.04651e-09
2.04651e-09
2.04651e-09
2.04651e-09
2.04651e-09
2.04651e-09
2.04651e-09
2.04651e-09
2.04651e-09
2.04651e-09
2.04651e-09
2.04651e-09
2.04651e-09
2.04651e-09
2.04651e-09
2.04651e-09
2.04651e-09
2.04651e-09
2.04651e-09
2.04651e-09
2.04651e-09
2.04651e-09
2.04651e-09
2.04651e-09
2.04651e-09
2.04651e-09
2.04651e-09
2.04651e-09
2.04651e-09
2.04651e-09
2.04651e-09
2.04651e-09
2.04651e-09
2.04651e-09
2.04651e-09
2.04651e-09
2.04651e-09
2.04651e-09
2.04651e-09
2.04651e-09
2.04651e-09
2.04651e-09
2.04651e-09
2.04651e-09
2.04651e-09
2.04651e-09
2.04651e-09
2.04651e-09
2.04651e-09
2.04651e-09
2.04651e-09
2.04651e-09
2.04651e-09
2.04651e-09
2.04651e-09
2.04651e-09
2.04651e-09
2.04651e-09
2.04651e-09
2.04651e-09
2.04651e-09
2.04651e-09
2.04651e-09
2.04651e-09
2.04651e-09
2.04651e-09
2.04651e-09
2.04651e-09
2.04651e-09
2.04651e-09
2.04651e-09
2.04651e-09
2.04651e-09
2.04651e-09
2.04651e-09
2.04651e-09
2.04651e-09
2.04651e-09
2.04651e-09
2.04651e-09
2.04651e-09
2.04651e-09
2.04651e-09
2.04651e-09
2.04651e-09
2.04651e-09
2.04651e-09
2.04651e-09
2.04651e-09
2.04651e-09
2.04651e-09
2.04651e-09
2.04651e-09
2.04651e-09
2.04651e-09
2.04651e-09
2.04651e-09
2.04651e-09
2.04651e-09
2.04651e-09
2.04651e-09
2.04651e-09
2.04651e-09
2.04651e-09
2.04651e-09
2.04651e-09
2.04651e-09
2.04651e-09
2.04651e-09
2.04651e-09
2.04651e-09
2.04651e-09
2.04651e-09
2.04651e-09
2.04651e-09
2.04651e-09
2.04651e-09
2.04651e-09
2.04651e-09
2.04651e-09
2.04651e-09
2.04651e-09
2.04651e-09
2.04651e-09
2.04651e-09
2.04651e-09
2.04651e-09
2.04651e-09
2.046510001e-09
2.046510004e-09
2.046510013e-09
2.046510044e-09
2.046510143e-09
2.046510439e-09
2.046511286e-09
2.046513585e-09
2.046519503e-09
2.046533921e-09
2.046567085e-09
2.046638859e-09
2.046784276e-09
2.047057917e-09
2.047529776e-09
2.048256315e-09
2.049196598e-09
2.049640394e-09
2.049748587e-09
2.049861045e-09
2.049978024e-09
2.050099733e-09
2.050226374e-09
2.050358158e-09
2.050495308e-09
2.050638067e-09
2.050786692e-09
2.050941453e-09
2.051102637e-09
2.051270546e-09
2.051445492e-09
2.051627808e-09
2.051817839e-09
2.052015949e-09
2.052222517e-09
2.052437942e-09
2.052662643e-09
2.052897059e-09
2.053141648e-09
2.053396894e-09
2.053663302e-09
2.0539414e-09
2.054231743e-09
2.054534913e-09
2.054851519e-09
2.055182197e-09
2.055527616e-09
2.055888474e-09
2.056265503e-09
2.056659468e-09
2.057071172e-09
2.057501452e-09
2.057951186e-09
2.058421289e-09
2.058912721e-09
2.059426485e-09
2.059963626e-09
2.060525241e-09
2.061112472e-09
2.061726513e-09
2.062368612e-09
2.063040069e-09
2.063742244e-09
2.064476553e-09
2.065244476e-09
2.066047555e-09
2.066887397e-09
2.067765679e-09
2.068684147e-09
2.069644621e-09
2.070648995e-09
2.071699244e-09
2.072797422e-09
2.073945666e-09
2.075146201e-09
2.076401341e-09
2.07771349e-09
2.07908515e-09
2.080518919e-09
2.082017498e-09
2.08358369e-09
2.085220407e-09
2.086930671e-09
2.088717618e-09
2.090584501e-09
2.092534694e-09
2.094571694e-09
2.096699126e-09
2.098920745e-09
2.101240443e-09
2.103662246e-09
2.106190324e-09
2.10882899e-09
2.111582708e-09
2.114456091e-09
2.117453912e-09
2.120581099e-09
2.123842747e-09
2.127244115e-09
2.130790634e-09
2.134487909e-09
2.138341721e-09
2.142358035e-09
2.146543e-09
2.150902953e-09
2.155444424e-09
2.160174138e-09
2.165099019e-09
2.170226196e-09
2.175563001e-09
2.181116976e-09
2.186895878e-09
2.192907676e-09
2.199160562e-09
2.205662947e-09
2.212423469e-09
2.219450992e-09
2.226754612e-09
2.234343659e-09
2.242227698e-09
2.250416531e-09
2.258920204e-09
2.267749002e-09
2.27691346e-09
2.286424354e-09
2.296292714e-09
2.306529817e-09
2.317147195e-09
2.328156629e-09
2.339570157e-09
2.351400074e-09
2.363658928e-09
2.376359526e-09
2.38951493e-09
2.403138463e-09
2.417243703e-09
2.431844487e-09
2.446954909e-09
2.46258932e-09
2.478762327e-09
2.495488793e-09
2.512783834e-09
2.53066282e-09
2.549141374e-09
2.568235366e-09
2.587960916e-09
2.60833439e-09
2.629372398e-09
2.651091791e-09
2.673509659e-09
2.696643329e-09
2.72051036e-09
2.745128541e-09
2.770515891e-09
2.796690649e-09
2.823671275e-09
2.851476448e-09
2.880125056e-09
2.909636199e-09
2.94002918e-09
2.971323504e-09
3.003538872e-09
3.036695178e-09
3.070812507e-09
3.105911124e-09
3.142011479e-09
3.179134194e-09
3.217300068e-09
3.256530063e-09
3.296845309e-09
3.338267095e-09
3.380816867e-09
3.424516226e-09
3.46938692e-09
3.515450847e-09
3.562730048e-09
3.611246706e-09
3.661023144e-09
3.712081821e-09
3.764445335e-09
3.818136418e-09
3.873177935e-09
3.929592889e-09
3.987404415e-09
4.046635786e-09
4.107310409e-09
4.169451836e-09
4.233083757e-09
4.298230011e-09
4.364914586e-09
4.433161626e-09
4.502995438e-09
4.574440498e-09
4.647521458e-09
4.722263155e-09
4.798690623e-09
4.876829102e-09
4.956704053e-09
5.038341166e-09
5.12176638e-09
5.207005898e-09
5.294086202e-09
5.383034071e-09
5.473876608e-09
5.566641252e-09
5.661355808e-09
5.75804847e-09
5.856747848e-09
5.957482993e-09
6.060283432e-09
6.165179198e-09
6.272200859e-09
6.381379564e-09
6.49274707e-09
6.606335788e-09
6.722178824e-09
6.840310023e-09
6.960764014e-09
7.08357626e-09
7.20878311e-09
7.336421849e-09
7.46653076e-09
7.599149176e-09
7.734317546e-09
7.872077496e-09
8.0124719e-09
8.155544942e-09
8.301342198e-09
8.449910702e-09
8.601299032e-09
8.755557386e-09
8.912737672e-09
9.072893591e-09
9.236080731e-09
9.402356662e-09
9.571781032e-09
9.744415672e-09
9.920324698e-09
1.009957463e-08
1.028223448e-08
1.04683759e-08
1.065807329e-08
1.085140392e-08
1.104844807e-08
1.124928913e-08
1.145401381e-08
1.166271219e-08
1.187547795e-08
1.209240848e-08
1.231360505e-08
1.253917296e-08
1.276922173e-08
1.300386528e-08
1.324322207e-08
1.348741532e-08
1.373657321e-08
1.399082904e-08
1.425032149e-08
1.45151948e-08
1.478559898e-08
1.506169008e-08
1.534363039e-08
1.563158874e-08
1.592574068e-08
1.622626881e-08
1.653336303e-08
1.684722086e-08
1.716804767e-08
1.749605709e-08
1.783147125e-08
1.81745212e-08
1.85254472e-08
1.888449914e-08
1.925193693e-08
1.962803089e-08
2.001306221e-08
2.040732343e-08
2.081111887e-08
2.122476525e-08
2.164859213e-08
2.208294251e-08
2.252817356e-08
2.298465717e-08
2.345278061e-08
2.393294734e-08
2.442557782e-08
2.493111031e-08
2.545000189e-08
2.598272943e-08
2.652979064e-08
2.709170523e-08
2.766901617e-08
2.826229104e-08
2.887212349e-08
2.949913485e-08
3.014397584e-08
3.080732861e-08
3.148990882e-08
3.219246798e-08
3.291579594e-08
3.366072377e-08
3.442812694e-08
3.521892854e-08
3.603410307e-08
3.687468052e-08
3.774175107e-08
3.863647015e-08
3.956006408e-08
4.051383635e-08
4.149917457e-08
4.251755817e-08
4.357056703e-08
4.465989104e-08
4.578734074e-08
4.695485921e-08
4.816453533e-08
4.941861851e-08
5.071953522e-08
5.20699074e-08
5.347257303e-08
5.493060911e-08
5.644735736e-08
5.802645298e-08
5.967185682e-08
6.138789129e-08
6.317928069e-08
6.505119626e-08
6.700930666e-08
6.905983448e-08
7.120961961e-08
7.346619009e-08
7.58378417e-08
7.833372697e-08
8.096395504e-08
8.373970357e-08
8.667334423e-08
8.977858331e-08
9.30706195e-08
9.656632073e-08
1.002844225e-07
1.042457504e-07
1.084734694e-07
1.129933639e-07
1.178341516e-07
1.230278356e-07
1.286100991e-07
1.346207491e-07
1.411042129e-07
1.481100963e-07
1.55693809e-07
1.639172668e-07
1.72849679e-07
1.825684326e-07
1.931600832e-07
2.047214678e-07
2.173609531e-07
2.31199836e-07
2.46373915e-07
2.630352533e-07
2.813541575e-07
3.015213969e-07
3.237506945e-07
3.482815215e-07
3.753822327e-07
4.053535842e-07
4.385326812e-07
4.75297406e-07
5.16071387e-07
5.613295734e-07
6.116044891e-07
6.674932496e-07
7.29665434e-07
7.988719162e-07
8.759547713e-07
9.618583903e-07
1.057641946e-06
1.164493379e-06
1.283745081e-06
1.416891494e-06
1.56560884e-06
1.731777256e-06
1.917505615e-06
2.125159361e-06
2.357391722e-06
2.617178711e-06
2.907858363e-06
3.233174731e-06
3.597327199e-06
4.005025756e-06
4.46155295e-06
4.972833303e-06
5.545511098e-06
6.18703751e-06
6.9057682e-06
7.711072608e-06
8.613456307e-06
9.624697957e-06
1.075800255e-05
1.202817284e-05
1.345180103e-05
1.504748302e-05
1.683605784e-05
1.884087494e-05
2.108809262e-05
2.360701073e-05
2.643044169e-05
2.959512352e-05
3.31421795e-05
3.71176291e-05
4.157295519e-05
4.656573307e-05
5.216032689e-05
5.842865948e-05
6.545106172e-05
7.331720776e-05
8.212714213e-05
9.199240494e-05
0.0001030372605
0.0001154000342
0.0001292345619
0.0001447117522
0.0001620212646
0.0001813732974
0.0002030004821
0.0002271598717
0.0002541350079
0.0002842380451
0.0003178119016
0.0003552323997
0.0003969103483
0.0004432935109
0.0004948683925
0.000552161767
0.0006157418626
0.00068621911
0.0007642463597
0.0008505184717
0.0009457711894
0.001050779219
0.001166353461
0.001293337359
0.001432602375
0.001585042634
0.001751568831
0.00193310153
0.002130564031
0.002344875031
0.002576941299
0.002827650627
0.003097865313
0.003388416391
0.003700098835
0.004033667879
0.004389836578
0.004769274652
0.005172608626
0.005600423252
0.006053264003
0.006531640728
0.007036032306
0.007566892524
0.008124657823
0.008709758445
0.009322636112
0.009963649439
0.01063367239
0.01133258918
0.01206310747
0.01282571304
0.01362156331
0.01444165181
0.01529284996
0.0161758035
0.01709110616
0.01803915894
0.0190198504
0.02003283815
0.02107773337
0.02215387693
0.02326046172
0.02439630009
0.02557511121
0.02676409672
0.02797519719
0.02920373967
0.03045568835
0.03169919231
0.03293659088
0.03415662253
0.03535397098
0.03650142133
0.03759029408
0.03860375144
0.03952393804
0.04033247184
0.04101108786
0.04154518146
0.04191699179
0.0421206884
0.04215238877
0.04201640062
0.0417224776
0.04128527361
0.04072289752
0.0400496054
0.03928531608
0.03845417974
0.03757498447
0.03666437069
0.03573668549
0.03480398418
0.03387602874
0.03296058905
0.03206463762
0.03120510434
0.03037197261
0.02955991959
0.02877974645
0.02803181199
0.02731584657
0.02663122559
0.02597712007
0.02535309187
0.02475712475
0.02418862066
0.02364644106
0.02312942283
0.02263639412
0.02216618874
0.02171765825
0.02128968159
0.02088117249
0.02049108475
0.02011841588
0.01976220928
0.01942155521
0.019095591
0.0187835005
0.01848451294
0.01819790162
0.01792298221
0.01765911089
0.01740568245
0.01716212826
0.01692791438
0.01670253951
0.01648553316
0.01627645375
0.01607488687
0.01588044359
0.01569275883
0.01551148986
0.01533631485
0.01516693153
0.01500305587
0.01484442098
0.01469077588
0.01454188454
0.01439752485
0.01425748775
0.01412157634
0.01398960509
0.01386139912
0.0137367935
0.0136156326
0.01349776947
0.01338306536
0.01327138908
0.01316261663
0.01305663067
0.01295332014
0.01285257986
0.01275431015
0.01265841651
0.01256480929
0.0124734034
0.01238411804
0.01229687641
0.01221160552
0.01212823594
0.01204670157
0.0119669395
0.01188888975
0.01181249519
0.01173770129
0.01166445604
0.01159270978
0.01152241505
0.01145352653
0.01138600084
0.01131979651
0.01125487383
0.01119119478
0.01112872293
0.01106742334
0.01100726254
0.01094820838
0.01089023001
0.0108332978
0.01077738328
0.01072245909
0.01066849892
0.01061547744
0.01056337028
0.01051215397
0.01046180591
0.0104123043
0.01036362815
0.01031575718
0.01026867184
0.01022235327
0.01017678324
0.01013194414
0.01008781895
0.01004439124
0.01000164509
0.009959565114
0.009918136417
0.009877344583
0.009837175646
0.009797616079
0.009758652774
0.009720273022
0.0096824645
0.009645215255
0.009608513688
0.009572348543
0.009536708889
0.009501584113
0.009466963903
0.00943283824
0.009399197386
0.009366031872
0.00933333249
0.009301090283
0.009269296537
0.009237942769
0.009207020723
0.009176522358
0.009146439843
0.00911676555
0.009087492047
0.009058612088
0.00903011861
0.009002004728
0.008974263726
0.008946889053
0.008919874316
0.008893213278
0.008866899851
0.008840928091
0.008815292193
0.008789986491
0.008765005446
0.00874034365
0.008715995817
0.008691956779
0.008668221488
0.008644785005
0.008621642502
0.008598789257
0.008576220651
0.008553932166
0.008531919379
0.008510177963
0.008488703682
0.008467492391
0.008446540028
0.008425842619
0.008405396271
0.008385197168
0.008365241576
0.008345525833
0.008326046353
0.008306799619
0.008287782185
0.008268990674
0.008250421772
0.008232072232
0.008213938869
0.008196018559
0.008178308237
0.008160804897
0.008143505589
0.008126407418
0.008109507544
0.008092803178
0.008076291583
0.008059970073
0.008043836008
0.008027886798
0.0080121199
0.007996532814
0.007981123087
0.007965888306
0.007950826104
0.007935934153
0.007921210166
0.007906651895
0.007892257132
0.007878023705
0.007863949479
0.007850032356
0.007836270274
0.007822661202
0.007809203148
0.007795894147
0.007782732271
0.007769715621
0.00775684233
0.007744110561
0.007731518507
0.007719064389
0.007706746457
0.007694562988
0.007682512288
0.007670592688
0.007658802546
0.007647140244
0.007635604191
0.007624192821
0.007612904589
0.007601737976
0.007590691486
0.007579763645
0.007568953
0.007558258124
0.007547677606
0.007537210059
0.007526854116
0.007516608431
0.007506471676
0.007496442543
0.007486519745
0.007476702009
0.007466988086
0.00745737674
0.007447866756
0.007438456936
0.007429146096
0.007419933073
0.007410816716
0.007401795894
0.00739286949
0.007384036402
0.007375295543
0.007366645844
0.007358086247
0.007349615711
0.007341233207
0.007332937722
0.007324728255
0.00731660382
0.007308563443
0.007300606165
0.007292731036
0.007284937123
0.007277223503
0.007269589264
0.007262033509
0.00725455535
0.007247153913
0.007239828333
0.007232577758
0.007225401345
0.007218298265
0.007211267697
0.007204308831
0.007197420867
0.007190603017
0.007183854501
0.00717717455
0.007170562403
0.007164017311
0.007157538533
0.007151125336
0.007144776999
0.007138492807
0.007132272057
0.00712611405
0.007120018101
0.00711398353
0.007108009666
0.007102095846
0.007096241415
0.007090445727
0.007084708142
0.00707902803
0.007073404766
0.007067837734
0.007062326326
0.007056869939
0.00705146798
0.00704611986
0.007040825
0.007035582825
0.007030392768
0.00702525427
0.007020166776
0.007015129739
0.007010142619
0.00700520488
0.007000315995
0.00699547544
0.006990682701
0.006985937266
0.006981238631
0.006976586298
0.006971979773
0.006967418569
0.006962902205
0.006958430205
0.006954002096
0.006949617415
0.0069452757
0.006940976498
0.006936719357
0.006932503833
0.006928329487
0.006924195884
0.006920102593
0.006916049189
0.006912035253
0.006908060368
0.006904124123
0.006900226113
0.006896365934
0.00689254319
0.006888757487
0.006885008437
0.006881295656
0.006877618763
0.006873977382
0.006870371142
0.006866799674
0.006863262616
0.006859759607
0.006856290292
0.00685285432
0.006849451342
0.006846081014
0.006842742996
0.006839436952
0.006836162548
0.006832919455
0.006829707349
0.006826525905
0.006823374807
0.00682025374
0.00681716239
0.006814100452
0.006811067618
0.006808063589
0.006805088066
0.006802140754
0.006799221361
0.006796329598
0.006793465182
0.006790627828
0.006787817258
0.006785033197
0.00678227537
0.006779543509
0.006776837345
0.006774156614
0.006771501056
0.006768870412
0.006766264425
0.006763682845
0.00676112542
0.006758591903
0.00675608205
0.006753595619
0.00675113237
0.006748692068
0.006746274478
0.00674387937
0.006741506514
0.006739155683
0.006736826656
0.00673451921
0.006732233126
0.006729968188
0.006727724183
0.006725500899
0.006723298127
0.00672111566
0.006718953293
0.006716810826
0.006714688056
0.006712584789
0.006710500826
0.006708435977
0.00670639005
0.006704362856
0.006702354208
0.006700363922
0.006698391817
0.006696437711
0.006694501426
0.006692582787
0.00669068162
0.006688797751
0.006686931013
0.006685081236
0.006683248254
0.006681431904
0.006679632023
0.006677848452
0.006676081031
0.006674329604
0.006672594018
0.006670874119
0.006669169756
0.00666748078
0.006665807045
0.006664148404
0.006662504714
0.006660875834
0.006659261622
0.006657661941
0.006656076654
0.006654505626
0.006652948723
0.006651405815
0.00664987677
0.006648361461
0.00664685976
0.006645371544
0.006643896687
0.006642435069
0.006640986569
0.006639551068
0.006638128448
0.006636718595
0.006635321393
0.006633936731
0.006632564496
0.006631204579
0.006629856872
0.006628521268
0.006627197661
0.006625885947
0.006624586024
0.00662329779
0.006622021146
0.006620755992
0.006619502232
0.00661825977
0.006617028511
0.006615808362
0.00661459923
0.006613401026
0.006612213659
0.006611037041
0.006609871085
0.006608715706
0.006607570818
0.006606436337
0.006605312183
0.006604198272
0.006603094525
0.006602000862
0.006600917206
0.00659984348
0.006598779606
0.006597725511
0.00659668112
0.006595646359
0.006594621156
0.00659360544
0.006592599141
0.006591602187
0.006590614511
0.006589636043
0.006588666716
0.006587706463
0.006586755218
0.006585812914
0.006584879487
0.006583954871
0.006583039002
0.006582131817
0.006581233251
0.006580343241
0.006579461723
0.006578588635
0.006577723913
0.006576867494
0.006576019315
0.006575179313
0.006574347423
0.006573523583
0.006572707727
0.00657189979
0.006571099708
0.006570307412
0.006569522837
0.006568745914
0.006567976573
0.006567214743
0.006566460352
0.006565713326
0.006564973588
0.006564241058
0.006563515654
0.00656279729
0.006562085874
0.006561381309
0.006560683487
0.006559992296
0.006559307606
0.006558629278
0.006557957151
0.006557291049
0.006556630771
0.0065559761
0.006550691797
0.006543767067
0.006538305822
0.006534322935
0.006531815981
0.006530782968
0.00653122485
0.006533146143
0.006536554899
0.006541462387
0.00654788266
0.006555832087
0.006565328887
0.006576392694
0.006589044141
0.006603304477
0.006619195205
0.006636737736
0.006655953052
0.006676861372
0.006699481815
0.006723832052
0.006749927947
0.006777783173
0.006807408811
0.006838812916
0.006872000064
0.006906970865
0.00694372146
0.006982242984
0.007022521025
0.007064535064
0.007108257912
0.007153655155
0.007200684618
0.007249295852
0.007299429681
0.007351017786
0.007403982373
0.007458235932
0.007513681097
0.007570210627
0.007627707514
0.007686045243
0.007745088199
0.007804692245
0.007864705453
0.00792496901
0.007985318277
0.008045584002
0.008105593685
0.008165173037
0.00822414758
0.008282344287
0.008339593291
0.008395729615
0.008450594864
0.008504038905
0.008555921427
0.008606113414
0.008654498471
0.008700973957
0.008745451944
0.00878785995
0.008828141446
0.008866256115
0.008902179877
0.008935904663
0.008967437975
0.008996802203
0.009024033758
0.009049182021
0.00907230814
0.009093483704
0.009112789321
0.009130313144
0.009146149357
0.009160396666
0.00917315683
0.009184533231
0.009194629548
0.009203548517
0.009211390816
0.009218254092
0.009224232112
0.009229414077
0.009233884077
0.009237720689
0.009240996719
0.009243779072
0.009246128739
0.009248100894
0.009249745082
0.009251105476
0.009252221204
0.009253126713
0.009253852168
0.009254423858
0.009254864617
0.009255194221
0.009255429781
0.009255586103
0.009255676012
0.009255710652
0.009255699737
0.009255651773
0.009255574234
0.009255473709
0.00925535602
0.009255226301
0.009255089069
0.009254948265
0.009254807285
0.009254669007
0.009254535801
0.009254409555
0.009254291684
0.009254183158
0.009254084526
0.009253995953
0.009253917253
0.009253847944
0.00925378729
0.009253734359
0.009253688078
0.009253647287
0.009253610793
0.00925357742
0.009253546051
0.009253515668
0.009253485381
0.00925345445
0.009253422299
0.00925338852
0.009253352873
0.009253315273
0.009253275781
0.009253234577
0.009253191945
0.009253148242
0.009253103877
0.009253059283
0.009253014897
0.009252971138
0.009252928391
0.009252886993
0.009252847222
0.009252809295
0.009252773363
0.009252739514
0.009252707775
0.009252678121
0.009252650482
0.009252624752
0.009252600796
0.009252578464
0.009252557595
0.009252538028
0.009252519607
0.009252502184
0.009252485627
0.009252469822
0.009252454669
0.009252440088
0.009252426018
0.009252412412
0.009252399238
0.009252386477
0.009252374122
0.009252362173
0.009252350639
0.009252339536
0.009252328884
0.009252318707
0.009252309033
0.009252299895
0.009252291323
0.009252283354
0.009252276024
0.009252269369
0.009252263425
0.009252258225
0.009252253802
0.009252250184
0.009252247393
0.009252245445
0.009252244349
0.009252244107
0.009252244708
0.009252246135
0.009252248358
0.009252251339
0.009252255027
0.009252259365
0.009252264285
0.00925226971
0.009252275559
0.009252281743
0.00925228817
0.009252294746
0.009252301375
0.009252307962
0.009252314413
0.009252320639
0.009252326554
0.009252332078
0.009252337139
0.009252341672
0.00925234562
0.009252348934
0.009252351577
0.00925235352
0.009252354742
0.009252355234
0.009252354994
0.00925235403
0.009252352356
0.009252349996
0.009252346979
0.009252343341
0.009252339121
0.009252334365
0.00925232912
0.009252323437
0.009252317369
0.00925231097
0.009252304294
0.009252297395
0.009252290326
0.009252283139
0.009252275886
0.009252268614
0.00925226137
0.009252254198
0.009252247139
0.00925224023
0.009252233507
0.009252226999
0.009252220736
0.009252214742
0.009252209037
0.009252203639
0.009252198562
0.009252193817
0.009252189411
0.009252185354
0.009252181657
0.009252178357
0.009252175561
0.009252173603
)
;

boundaryField
{
    inlet
    {
        type            fixedValue;
        value           uniform 0;
    }
    outlet
    {
        type            zeroGradient;
    }
    wall
    {
        type            empty;
    }
}


// ************************************************************************* //
