/*--------------------------------*- C++ -*----------------------------------*\
  =========                 |
  \\      /  F ield         | OpenFOAM: The Open Source CFD Toolbox
   \\    /   O peration     | Website:  https://openfoam.org
    \\  /    A nd           | Version:  7
     \\/     M anipulation  |
\*---------------------------------------------------------------------------*/
FoamFile
{
    version     2.0;
    format      ascii;
    class       volScalarField;
    location    "0.000558243009";
    object      CO2;
}
// * * * * * * * * * * * * * * * * * * * * * * * * * * * * * * * * * * * * * //

dimensions      [0 0 0 0 0 0 0];

internalField   nonuniform List<scalar> 
1500
(
1.132002679e-11
4.427751344e-11
9.137777611e-11
1.372704368e-10
1.715898631e-10
1.926203282e-10
2.03589237e-10
2.085754067e-10
2.105841036e-10
2.113107571e-10
2.115494187e-10
2.116212533e-10
2.116412258e-10
2.116463903e-10
2.116476395e-10
2.116479236e-10
2.116479846e-10
2.11647997e-10
2.116479995e-10
2.116479999e-10
2.11648e-10
2.11648e-10
2.11648e-10
2.11648e-10
2.11648e-10
2.11648e-10
2.11648e-10
2.11648e-10
2.11648e-10
2.11648e-10
2.11648e-10
2.11648e-10
2.11648e-10
2.11648e-10
2.11648e-10
2.11648e-10
2.11648e-10
2.11648e-10
2.11648e-10
2.11648e-10
2.11648e-10
2.11648e-10
2.11648e-10
2.11648e-10
2.11648e-10
2.11648e-10
2.11648e-10
2.11648e-10
2.11648e-10
2.11648e-10
2.11648e-10
2.11648e-10
2.11648e-10
2.11648e-10
2.11648e-10
2.11648e-10
2.11648e-10
2.11648e-10
2.11648e-10
2.11648e-10
2.11648e-10
2.11648e-10
2.11648e-10
2.11648e-10
2.11648e-10
2.11648e-10
2.11648e-10
2.11648e-10
2.11648e-10
2.11648e-10
2.11648e-10
2.11648e-10
2.11648e-10
2.11648e-10
2.11648e-10
2.11648e-10
2.11648e-10
2.11648e-10
2.11648e-10
2.11648e-10
2.11648e-10
2.11648e-10
2.11648e-10
2.11648e-10
2.11648e-10
2.11648e-10
2.11648e-10
2.11648e-10
2.11648e-10
2.11648e-10
2.11648e-10
2.11648e-10
2.11648e-10
2.11648e-10
2.11648e-10
2.11648e-10
2.11648e-10
2.11648e-10
2.11648e-10
2.11648e-10
2.11648e-10
2.11648e-10
2.11648e-10
2.11648e-10
2.11648e-10
2.11648e-10
2.11648e-10
2.11648e-10
2.11648e-10
2.11648e-10
2.11648e-10
2.11648e-10
2.11648e-10
2.11648e-10
2.11648e-10
2.11648e-10
2.11648e-10
2.11648e-10
2.11648e-10
2.11648e-10
2.11648e-10
2.11648e-10
2.11648e-10
2.11648e-10
2.11648e-10
2.11648e-10
2.11648e-10
2.11648e-10
2.11648e-10
2.11648e-10
2.11648e-10
2.11648e-10
2.11648e-10
2.11648e-10
2.11648e-10
2.11648e-10
2.11648e-10
2.11648e-10
2.11648e-10
2.11648e-10
2.11648e-10
2.11648e-10
2.11648e-10
2.11648e-10
2.11648e-10
2.11648e-10
2.11648e-10
2.11648e-10
2.11648e-10
2.11648e-10
2.11648e-10
2.11648e-10
2.11648e-10
2.11648e-10
2.11648e-10
2.11648e-10
2.11648e-10
2.11648e-10
2.11648e-10
2.11648e-10
2.11648e-10
2.11648e-10
2.11648e-10
2.11648e-10
2.11648e-10
2.11648e-10
2.11648e-10
2.11648e-10
2.11648e-10
2.11648e-10
2.11648e-10
2.11648e-10
2.11648e-10
2.11648e-10
2.11648e-10
2.11648e-10
2.11648e-10
2.11648e-10
2.11648e-10
2.11648e-10
2.11648e-10
2.11648e-10
2.11648e-10
2.11648e-10
2.11648e-10
2.11648e-10
2.11648e-10
2.11648e-10
2.11648e-10
2.11648e-10
2.11648e-10
2.11648e-10
2.11648e-10
2.11648e-10
2.11648e-10
2.11648e-10
2.11648e-10
2.11648e-10
2.11648e-10
2.11648e-10
2.11648e-10
2.11648e-10
2.11648e-10
2.11648e-10
2.11648e-10
2.11648e-10
2.11648e-10
2.11648e-10
2.11648e-10
2.11648e-10
2.11648e-10
2.11648e-10
2.11648e-10
2.11648e-10
2.11648e-10
2.11648e-10
2.11648e-10
2.11648e-10
2.11648e-10
2.11648e-10
2.11648e-10
2.11648e-10
2.11648e-10
2.11648e-10
2.11648e-10
2.11648e-10
2.11648e-10
2.11648e-10
2.11648e-10
2.11648e-10
2.11648e-10
2.11648e-10
2.11648e-10
2.11648e-10
2.11648e-10
2.116480001e-10
2.116480004e-10
2.116480016e-10
2.116480059e-10
2.116480204e-10
2.116480671e-10
2.116482087e-10
2.116486115e-10
2.11649684e-10
2.116523463e-10
2.116584687e-10
2.116713876e-10
2.116959865e-10
2.117368558e-10
2.117912116e-10
2.118121944e-10
2.118179832e-10
2.118239951e-10
2.118302433e-10
2.118367377e-10
2.11843488e-10
2.118505046e-10
2.118577989e-10
2.118653832e-10
2.118732707e-10
2.118814752e-10
2.118900114e-10
2.118988947e-10
2.119081412e-10
2.11917768e-10
2.119277928e-10
2.119382347e-10
2.119491134e-10
2.119604498e-10
2.119722661e-10
2.119845853e-10
2.11997432e-10
2.12010832e-10
2.120248125e-10
2.120394022e-10
2.120546314e-10
2.120705319e-10
2.120871374e-10
2.121044835e-10
2.121226074e-10
2.121415489e-10
2.121613494e-10
2.121820529e-10
2.122037057e-10
2.122263568e-10
2.122500578e-10
2.122748629e-10
2.123008295e-10
2.123280183e-10
2.123564928e-10
2.123863205e-10
2.124175722e-10
2.124503227e-10
2.124846509e-10
2.125206399e-10
2.125583772e-10
2.125979551e-10
2.126394709e-10
2.12683027e-10
2.127287313e-10
2.127766974e-10
2.128270449e-10
2.128798998e-10
2.129353947e-10
2.129936689e-10
2.130548694e-10
2.131191503e-10
2.13186674e-10
2.132576111e-10
2.13332141e-10
2.134104522e-10
2.134927425e-10
2.1357922e-10
2.13670103e-10
2.137656206e-10
2.138660132e-10
2.139715332e-10
2.140824451e-10
2.141990263e-10
2.143215676e-10
2.144503735e-10
2.145857631e-10
2.147280705e-10
2.148776455e-10
2.15034854e-10
2.152000788e-10
2.153737203e-10
2.155561968e-10
2.157479457e-10
2.159494238e-10
2.161611079e-10
2.16383496e-10
2.166171076e-10
2.168624845e-10
2.171201918e-10
2.173908183e-10
2.176749775e-10
2.179733085e-10
2.182864764e-10
2.186151733e-10
2.189601195e-10
2.193220636e-10
2.197017838e-10
2.201000887e-10
2.205178179e-10
2.209558432e-10
2.214150689e-10
2.218964334e-10
2.224009092e-10
2.229295043e-10
2.23483263e-10
2.240632665e-10
2.246706338e-10
2.253065225e-10
2.259721298e-10
2.26668693e-10
2.273974905e-10
2.281598425e-10
2.289571117e-10
2.29790704e-10
2.306620693e-10
2.315727022e-10
2.325241426e-10
2.335179762e-10
2.345558354e-10
2.356393996e-10
2.36770396e-10
2.379505997e-10
2.391818347e-10
2.404659738e-10
2.418049393e-10
2.432007034e-10
2.446552882e-10
2.46170766e-10
2.477492599e-10
2.493929433e-10
2.511040405e-10
2.528848267e-10
2.547376275e-10
2.566648193e-10
2.586688292e-10
2.607521344e-10
2.629172621e-10
2.651667892e-10
2.675033422e-10
2.699295961e-10
2.724482743e-10
2.750621479e-10
2.777740352e-10
2.805868005e-10
2.835033538e-10
2.865266496e-10
2.896596862e-10
2.929055044e-10
2.962671866e-10
2.997478556e-10
3.033506735e-10
3.070788401e-10
3.109355921e-10
3.149242009e-10
3.190479722e-10
3.233102433e-10
3.277143824e-10
3.322637868e-10
3.369618808e-10
3.418121146e-10
3.46817962e-10
3.519829189e-10
3.573105016e-10
3.628042445e-10
3.684676987e-10
3.743044298e-10
3.803180162e-10
3.865120471e-10
3.928901206e-10
3.994558417e-10
4.062128206e-10
4.13164671e-10
4.203150077e-10
4.276674455e-10
4.35225597e-10
4.42993071e-10
4.509734711e-10
4.591703939e-10
4.675874276e-10
4.76228151e-10
4.850961314e-10
4.941949244e-10
5.035280723e-10
5.130991032e-10
5.229115307e-10
5.329688527e-10
5.432745516e-10
5.538320936e-10
5.646449288e-10
5.757164913e-10
5.870501999e-10
5.986494583e-10
6.10517656e-10
6.226581696e-10
6.350743641e-10
6.477695944e-10
6.607472076e-10
6.740105447e-10
6.875629437e-10
7.014077423e-10
7.15548281e-10
7.299879069e-10
7.447299778e-10
7.597778663e-10
7.751349648e-10
7.908046905e-10
8.067904913e-10
8.230958515e-10
8.397242988e-10
8.566794109e-10
8.739648231e-10
8.915842364e-10
9.095414258e-10
9.278402495e-10
9.464846584e-10
9.654787061e-10
9.848265596e-10
1.004532511e-09
1.024600988e-09
1.045036569e-09
1.065843993e-09
1.087028175e-09
1.10859422e-09
1.130547439e-09
1.152893363e-09
1.175637761e-09
1.198786654e-09
1.222346338e-09
1.246323398e-09
1.270724727e-09
1.295557551e-09
1.320829443e-09
1.346548351e-09
1.372722614e-09
1.399360992e-09
1.426472682e-09
1.45406735e-09
1.482155152e-09
1.510746764e-09
1.539853405e-09
1.56948687e-09
1.599659554e-09
1.630384488e-09
1.661675365e-09
1.693546576e-09
1.726013238e-09
1.759091234e-09
1.792797244e-09
1.827148783e-09
1.862164236e-09
1.897862901e-09
1.934265022e-09
1.971391835e-09
2.009265609e-09
2.047909686e-09
2.087348529e-09
2.127607767e-09
2.168714239e-09
2.210696048e-09
2.253582607e-09
2.297404692e-09
2.342194494e-09
2.387985677e-09
2.43481343e-09
2.482714531e-09
2.531727408e-09
2.581892197e-09
2.633250807e-09
2.685846998e-09
2.739726446e-09
2.794936797e-09
2.851527757e-09
2.909551166e-09
2.969061078e-09
3.03011385e-09
3.092768224e-09
3.157085418e-09
3.223129218e-09
3.290966071e-09
3.360665189e-09
3.432298652e-09
3.505941516e-09
3.581671922e-09
3.659571237e-09
3.739724176e-09
3.822218948e-09
3.907147392e-09
3.994605152e-09
4.084691847e-09
4.177511232e-09
4.273171388e-09
4.371784933e-09
4.473469252e-09
4.578346738e-09
4.686545061e-09
4.798197455e-09
4.913443039e-09
5.032427163e-09
5.155301798e-09
5.282225963e-09
5.413366199e-09
5.548897103e-09
5.689001919e-09
5.833873204e-09
5.983713581e-09
6.138736581e-09
6.299167599e-09
6.465244981e-09
6.637221256e-09
6.815364536e-09
6.999960118e-09
7.191312316e-09
7.389746552e-09
7.595611759e-09
7.80928314e-09
8.031165335e-09
8.261696071e-09
8.501350365e-09
8.750645374e-09
9.010145986e-09
9.28047129e-09
9.562302041e-09
9.856389309e-09
1.016356447e-08
1.048475082e-08
1.082097692e-08
1.117339224e-08
1.154328512e-08
1.193210368e-08
1.234148009e-08
1.277325873e-08
1.322952879e-08
1.371266222e-08
1.422535777e-08
1.477069205e-08
1.535217895e-08
1.597383857e-08
1.664027731e-08
1.735678097e-08
1.812942283e-08
1.896518933e-08
1.987212603e-08
2.085950727e-08
2.193803334e-08
2.312005959e-08
2.441986272e-08
2.58539503e-08
2.744142045e-08
2.920437995e-08
3.116843012e-08
3.336323164e-08
3.582316092e-08
3.858807313e-08
4.170418891e-08
4.522512504e-08
4.921309235e-08
5.374028793e-08
5.889051318e-08
6.476105441e-08
7.146486827e-08
7.91331217e-08
8.791814353e-08
9.799685459e-08
1.095747536e-07
1.228905489e-07
1.382215404e-07
1.558898726e-07
1.762698006e-07
1.997961311e-07
2.269740295e-07
2.583904118e-07
2.947271788e-07
3.367765875e-07
3.854591044e-07
4.4184414e-07
5.07174127e-07
5.828924781e-07
6.706760466e-07
7.724728084e-07
8.905456018e-07
1.027522889e-06
1.186457661e-06
1.370895771e-06
1.584955207e-06
1.833418009e-06
2.121836848e-06
2.456658549e-06
2.845367224e-06
3.296650058e-06
3.820589265e-06
4.428884251e-06
5.135108604e-06
5.955007217e-06
6.906839598e-06
8.011776276e-06
9.294356158e-06
1.078301377e-05
1.251068645e-05
1.451551289e-05
1.684163574e-05
1.954012258e-05
2.267002102e-05
2.629956546e-05
3.050755452e-05
3.538491987e-05
4.103650874e-05
4.758310345e-05
5.516370233e-05
6.393808686e-05
7.40896992e-05
8.582885318e-05
9.939629889e-05
0.0001150671567
0.0001331552304
0.0001540176988
0.0001780601769
0.0002057421172
0.0002375825091
0.0002741658092
0.0003161480101
0.0003642627291
0.0004193271684
0.0004822477684
0.0005540253496
0.0006357595163
0.0007286520826
0.0008340092765
0.0009532424962
0.001087867415
0.001239501286
0.001409858365
0.001600743444
0.001814043588
0.002051718263
0.002315788133
0.002608322893
0.002931428551
0.003287234639
0.003677881811
0.004105510306
0.004572249699
0.005080210306
0.00563147651
0.006228102349
0.006872109197
0.007565485998
0.008310191884
0.009108161684
0.009961315433
0.0108715749
0.011840894
0.01287106529
0.01396496358
0.01512346025
0.01635344536
0.01765724289
0.0190385258
0.02047869335
0.02199360573
0.02358604962
0.02525886848
0.0270148315
0.02885613413
0.03078496307
0.03280377034
0.03491474511
0.03712002985
0.03942134465
0.04185830492
0.04435655864
0.0469537696
0.04964886496
0.05247282808
0.05535801403
0.05833213315
0.06138929314
0.06454578474
0.06775251272
0.07102357353
0.07434957875
0.07772012915
0.08112343453
0.08454601886
0.08799122875
0.0914079198
0.09481003416
0.09815584011
0.1014416732
0.104652941
0.1077767162
0.1108019812
0.113750742
0.1166101748
0.1193546879
0.1219810481
0.1244882998
0.1268770532
0.1291491955
0.1313076916
0.1333562475
0.1352967059
0.1371012975
0.1388096711
0.140445293
0.1419891228
0.1434466995
0.1448237697
0.1461257486
0.147357597
0.1485226204
0.1496272284
0.1506740677
0.1516666818
0.1526083908
0.1535023119
0.1543513741
0.1551583292
0.1559257602
0.1566560895
0.1573515861
0.1580143736
0.1586464377
0.1592496342
0.1598256962
0.1603762422
0.1609027831
0.1614067291
0.1618893966
0.1623520144
0.1627957297
0.163221614
0.1636306677
0.1640238258
0.1644019621
0.1647658932
0.1651163832
0.165454147
0.1657798534
0.1660941291
0.166397561
0.1666906992
0.1669740596
0.1672481261
0.1675133532
0.1677701674
0.1680189697
0.1682601369
0.1684940236
0.1687209635
0.1689412707
0.1691552413
0.1693631542
0.1695652728
0.1697618455
0.1699531067
0.1701392781
0.1703205691
0.1704971781
0.1706692923
0.1708370895
0.1710007379
0.1711603969
0.1713162179
0.1714683443
0.1716169125
0.171762052
0.171903886
0.1720425314
0.1721780998
0.1723106973
0.1724404249
0.1725673788
0.1726916512
0.1728133294
0.1729324974
0.1730492349
0.1731636184
0.1732757208
0.1733856122
0.1734933592
0.1735990259
0.1737026737
0.1738043614
0.1739041453
0.1740020794
0.1740982158
0.1741926041
0.1742852924
0.1743763267
0.1744657511
0.1745536083
0.1746399393
0.1747247834
0.1748081788
0.1748901619
0.1749707681
0.1750500314
0.1751279847
0.1752046597
0.1752800869
0.175354296
0.1754273154
0.1754991728
0.175569895
0.1756395076
0.1757080358
0.1757755037
0.1758419346
0.1759073514
0.175971776
0.1760352297
0.1760977331
0.1761593063
0.1762199688
0.1762797393
0.1763386363
0.1763966774
0.17645388
0.1765102608
0.1765658363
0.1766206221
0.1766746337
0.1767278861
0.176780394
0.1768321714
0.1768832323
0.17693359
0.1769832577
0.1770322482
0.1770805737
0.1771282466
0.1771752785
0.177221681
0.1772674653
0.1773126424
0.177357223
0.1774012173
0.1774446358
0.1774874882
0.1775297842
0.1775715334
0.1776127449
0.1776534278
0.177693591
0.177733243
0.1777723922
0.177811047
0.1778492153
0.177886905
0.1779241239
0.1779608794
0.177997179
0.1780330299
0.178068439
0.1781034134
0.1781379598
0.1781720848
0.1782057949
0.1782390965
0.1782719957
0.1783044987
0.1783366114
0.1783683397
0.1783996894
0.178430666
0.178461275
0.1784915219
0.178521412
0.1785509504
0.1785801423
0.1786089926
0.1786375063
0.1786656882
0.1786935429
0.1787210752
0.1787482895
0.1787751903
0.1788017821
0.1788280691
0.1788540555
0.1788797455
0.1789051432
0.1789302525
0.1789550774
0.1789796218
0.1790038894
0.179027884
0.1790516092
0.1790750687
0.1790982659
0.1791212045
0.1791438877
0.1791663189
0.1791885015
0.1792104387
0.1792321337
0.1792535896
0.1792748095
0.1792957966
0.1793165537
0.1793370838
0.1793573898
0.1793774746
0.179397341
0.1794169917
0.1794364294
0.1794556569
0.1794746767
0.1794934915
0.1795121038
0.1795305161
0.1795487308
0.1795667505
0.1795845776
0.1796022143
0.179619663
0.1796369261
0.1796540057
0.1796709041
0.1796876235
0.1797041661
0.1797205339
0.1797367291
0.1797527538
0.1797686099
0.1797842995
0.1797998246
0.1798151871
0.179830389
0.179845432
0.1798603183
0.1798750494
0.1798896273
0.1799040538
0.1799183306
0.1799324595
0.1799464422
0.1799602804
0.1799739757
0.1799875299
0.1800009445
0.1800142211
0.1800273614
0.1800403668
0.180053239
0.1800659794
0.1800785896
0.180091071
0.1801034251
0.1801156534
0.1801277572
0.180139738
0.1801515972
0.180163336
0.180174956
0.1801864583
0.1801978444
0.1802091156
0.180220273
0.180231318
0.1802422519
0.1802530758
0.180263791
0.1802743987
0.1802849001
0.1802952964
0.1803055887
0.1803157782
0.1803258659
0.1803358531
0.1803457408
0.1803555301
0.1803652221
0.1803748179
0.1803843185
0.180393725
0.1804030383
0.1804122595
0.1804213896
0.1804304296
0.1804393805
0.1804482432
0.1804570187
0.180465708
0.1804743119
0.1804828314
0.1804912674
0.1804996209
0.1805078926
0.1805160835
0.1805241944
0.1805322263
0.1805401799
0.1805480561
0.1805558558
0.1805635797
0.1805712286
0.1805788035
0.180586305
0.1805937339
0.1806010911
0.1806083772
0.1806155931
0.1806227395
0.1806298171
0.1806368267
0.180643769
0.1806506447
0.1806574545
0.1806641992
0.1806708794
0.1806774957
0.180684049
0.1806905398
0.1806969688
0.1807033367
0.1807096441
0.1807158916
0.1807220799
0.1807282097
0.1807342815
0.1807402959
0.1807462537
0.1807521552
0.1807580013
0.1807637923
0.180769529
0.1807752119
0.1807808415
0.1807864185
0.1807919434
0.1807974167
0.180802839
0.1808082108
0.1808135326
0.180818805
0.1808240285
0.1808292036
0.1808343309
0.1808394108
0.1808444438
0.1808494304
0.1808543711
0.1808592664
0.1808641168
0.1808689227
0.1808736847
0.1808784031
0.1808830784
0.1808877112
0.1808923017
0.1808968505
0.1809013581
0.1809058248
0.1809102511
0.1809146373
0.180918984
0.1809232915
0.1809275603
0.1809317908
0.1809359832
0.1809401382
0.180944256
0.180948337
0.1809523817
0.1809563903
0.1809603634
0.1809643012
0.1809682041
0.1809720725
0.1809759067
0.1809797072
0.1809834743
0.1809872082
0.1809909094
0.1809945782
0.1809982149
0.1810018199
0.1810053936
0.1810089361
0.1810124479
0.1810159293
0.1810193806
0.1810228021
0.1810261941
0.1810295569
0.1810328908
0.1810361962
0.1810394733
0.1810427224
0.1810459439
0.1810491379
0.1810523048
0.1810554449
0.1810585584
0.1810616456
0.1810647068
0.1810677423
0.1810707523
0.1810737371
0.1810766969
0.181079632
0.1810825427
0.1810854292
0.1810882917
0.1810911306
0.181093946
0.1810967381
0.1810995073
0.1811022538
0.1811049778
0.1811076795
0.1811103591
0.1811130169
0.1811156531
0.1811182679
0.1811208616
0.1811234343
0.1811259863
0.1811285178
0.1811310289
0.1811335199
0.1811359911
0.1811384425
0.1811408744
0.181143287
0.1811456805
0.1811480551
0.181150411
0.1811527483
0.1811550672
0.181157368
0.1811596509
0.1811619159
0.1811641633
0.1811663932
0.1811686059
0.1811708015
0.1811729801
0.1811751421
0.1811772874
0.1811794163
0.181181529
0.1811836256
0.1811857063
0.1811877712
0.1811898205
0.1811918544
0.181193873
0.1811958765
0.1811978651
0.1811998388
0.1812017979
0.1812037425
0.1812056727
0.1812075887
0.1812094907
0.1812113789
0.1812132532
0.181215114
0.1812169614
0.1812187954
0.1812206163
0.1812224243
0.1812242194
0.1812260018
0.1812277717
0.1812295292
0.1812312744
0.1812330076
0.1812347289
0.1812364383
0.1812381362
0.1812398227
0.1812414978
0.1812431618
0.1812448149
0.1812464572
0.1812480888
0.18124971
0.181251321
0.1812529218
0.1812545127
0.181256094
0.1812576657
0.1812592281
0.1812607813
0.1812623257
0.1812638614
0.1812653886
0.1812669075
0.1812684185
0.1812699217
0.1812714174
0.181272906
0.1812743876
0.1812758626
0.1812773313
0.1812787941
0.1812802515
0.1812817039
0.1812831519
0.1812845961
0.1812860373
0.1812977503
0.1813138359
0.1813279644
0.1813401609
0.1813504677
0.1813589313
0.1813655961
0.1813705034
0.1813736914
0.1813751954
0.1813750485
0.1813732823
0.1813699273
0.1813650135
0.1813585707
0.1813506286
0.181341217
0.1813303662
0.1813181064
0.181304468
0.1812894813
0.1812731761
0.1812555819
0.1812367272
0.1812166395
0.1811953448
0.181172868
0.1811492318
0.1811244575
0.1810985644
0.1810715699
0.18104349
0.1810143391
0.1809841306
0.1809528774
0.1809205921
0.1808872882
0.1808529801
0.1808176847
0.1807814214
0.1807442139
0.1807060902
0.1806670841
0.1806272355
0.1805865916
0.1805452071
0.180503145
0.1804604768
0.1804172825
0.1803736506
0.1803296783
0.1802854702
0.1802411381
0.1801968003
0.18015258
0.1801086043
0.1800650029
0.1800219065
0.1799794449
0.179937746
0.1798969336
0.1798571259
0.1798184342
0.1797809612
0.1797448
0.1797100327
0.1796767298
0.1796449491
0.1796147358
0.1795861217
0.1795591256
0.1795337536
0.1795099992
0.1794878441
0.1794672595
0.1794482063
0.1794306368
0.179414496
0.1793997222
0.1793862491
0.1793740065
0.1793629217
0.179352921
0.1793439302
0.1793358762
0.1793286873
0.1793222945
0.1793166313
0.179311635
0.1793072463
0.1793034099
0.1793000744
0.1792971921
0.1792947191
0.179292615
0.1792908427
0.179289368
0.1792881595
0.179287188
0.1792864268
0.1792858509
0.179285437
0.1792851635
0.1792850101
0.1792849579
0.1792849894
0.1792850883
0.1792852397
0.17928543
0.1792856468
0.1792858795
0.1792861185
0.1792863558
0.179286585
0.1792868008
0.1792869996
0.1792871786
0.1792873366
0.1792874732
0.1792875891
0.1792876856
0.1792877646
0.1792878286
0.1792878803
0.1792879224
0.1792879579
0.1792879893
0.1792880193
0.1792880499
0.1792880831
0.1792881202
0.1792881623
0.1792882099
0.1792882633
0.1792883224
0.1792883867
0.1792884556
0.1792885282
0.1792886036
0.1792886806
0.1792887583
0.1792888356
0.1792889117
0.1792889856
0.1792890567
0.1792891245
0.1792891885
0.1792892486
0.1792893046
0.1792893566
0.1792894046
0.179289449
0.1792894899
0.1792895277
0.1792895628
0.1792895954
0.179289626
0.1792896547
0.1792896819
0.1792897078
0.1792897327
0.1792897566
0.1792897797
0.1792898021
0.1792898239
0.1792898451
0.1792898656
0.1792898856
0.1792899051
0.1792899239
0.179289942
0.1792899595
0.1792899764
0.1792899925
0.1792900078
0.1792900222
0.1792900359
0.1792900485
0.1792900602
0.1792900708
0.1792900803
0.1792900886
0.1792900956
0.1792901013
0.1792901057
0.1792901088
0.1792901104
0.1792901107
0.1792901095
0.179290107
0.1792901032
0.1792900981
0.1792900919
0.1792900847
0.1792900765
0.1792900674
0.1792900577
0.1792900475
0.1792900369
0.1792900261
0.1792900152
0.1792900044
0.1792899938
0.1792899837
0.179289974
0.1792899651
0.1792899569
0.1792899496
0.1792899433
0.179289938
0.1792899338
0.1792899307
0.1792899289
0.1792899282
0.1792899287
0.1792899303
0.1792899331
0.1792899371
0.179289942
0.1792899479
0.1792899548
0.1792899625
0.179289971
0.1792899802
0.1792899899
0.1792900002
0.1792900109
0.1792900219
0.1792900332
0.1792900447
0.1792900562
0.1792900678
0.1792900793
0.1792900907
0.1792901018
0.1792901128
0.1792901234
0.1792901337
0.1792901436
0.179290153
0.179290162
0.1792901705
0.1792901785
0.1792901859
0.1792901928
0.1792901992
0.179290205
0.1792902102
0.1792902146
0.1792902178
)
;

boundaryField
{
    inlet
    {
        type            fixedValue;
        value           uniform 0;
    }
    outlet
    {
        type            zeroGradient;
    }
    wall
    {
        type            empty;
    }
}


// ************************************************************************* //
