/*--------------------------------*- C++ -*----------------------------------*\
  =========                 |
  \\      /  F ield         | OpenFOAM: The Open Source CFD Toolbox
   \\    /   O peration     | Website:  https://openfoam.org
    \\  /    A nd           | Version:  7
     \\/     M anipulation  |
\*---------------------------------------------------------------------------*/
FoamFile
{
    version     2.0;
    format      ascii;
    class       volScalarField;
    location    "0.000558243009";
    object      CO2_0;
}
// * * * * * * * * * * * * * * * * * * * * * * * * * * * * * * * * * * * * * //

dimensions      [0 0 0 0 0 0 0];

internalField   nonuniform List<scalar> 
1500
(
1.132781938e-11
4.430094479e-11
9.141237322e-11
1.373049201e-10
1.716161914e-10
1.926367619e-10
2.035979406e-10
2.085794129e-10
2.105857347e-10
2.113113529e-10
2.115496161e-10
2.116213132e-10
2.116412426e-10
2.116463946e-10
2.116476406e-10
2.116479239e-10
2.116479847e-10
2.116479971e-10
2.116479995e-10
2.116479999e-10
2.11648e-10
2.11648e-10
2.11648e-10
2.11648e-10
2.11648e-10
2.11648e-10
2.11648e-10
2.11648e-10
2.11648e-10
2.11648e-10
2.11648e-10
2.11648e-10
2.11648e-10
2.11648e-10
2.11648e-10
2.11648e-10
2.11648e-10
2.11648e-10
2.11648e-10
2.11648e-10
2.11648e-10
2.11648e-10
2.11648e-10
2.11648e-10
2.11648e-10
2.11648e-10
2.11648e-10
2.11648e-10
2.11648e-10
2.11648e-10
2.11648e-10
2.11648e-10
2.11648e-10
2.11648e-10
2.11648e-10
2.11648e-10
2.11648e-10
2.11648e-10
2.11648e-10
2.11648e-10
2.11648e-10
2.11648e-10
2.11648e-10
2.11648e-10
2.11648e-10
2.11648e-10
2.11648e-10
2.11648e-10
2.11648e-10
2.11648e-10
2.11648e-10
2.11648e-10
2.11648e-10
2.11648e-10
2.11648e-10
2.11648e-10
2.11648e-10
2.11648e-10
2.11648e-10
2.11648e-10
2.11648e-10
2.11648e-10
2.11648e-10
2.11648e-10
2.11648e-10
2.11648e-10
2.11648e-10
2.11648e-10
2.11648e-10
2.11648e-10
2.11648e-10
2.11648e-10
2.11648e-10
2.11648e-10
2.11648e-10
2.11648e-10
2.11648e-10
2.11648e-10
2.11648e-10
2.11648e-10
2.11648e-10
2.11648e-10
2.11648e-10
2.11648e-10
2.11648e-10
2.11648e-10
2.11648e-10
2.11648e-10
2.11648e-10
2.11648e-10
2.11648e-10
2.11648e-10
2.11648e-10
2.11648e-10
2.11648e-10
2.11648e-10
2.11648e-10
2.11648e-10
2.11648e-10
2.11648e-10
2.11648e-10
2.11648e-10
2.11648e-10
2.11648e-10
2.11648e-10
2.11648e-10
2.11648e-10
2.11648e-10
2.11648e-10
2.11648e-10
2.11648e-10
2.11648e-10
2.11648e-10
2.11648e-10
2.11648e-10
2.11648e-10
2.11648e-10
2.11648e-10
2.11648e-10
2.11648e-10
2.11648e-10
2.11648e-10
2.11648e-10
2.11648e-10
2.11648e-10
2.11648e-10
2.11648e-10
2.11648e-10
2.11648e-10
2.11648e-10
2.11648e-10
2.11648e-10
2.11648e-10
2.11648e-10
2.11648e-10
2.11648e-10
2.11648e-10
2.11648e-10
2.11648e-10
2.11648e-10
2.11648e-10
2.11648e-10
2.11648e-10
2.11648e-10
2.11648e-10
2.11648e-10
2.11648e-10
2.11648e-10
2.11648e-10
2.11648e-10
2.11648e-10
2.11648e-10
2.11648e-10
2.11648e-10
2.11648e-10
2.11648e-10
2.11648e-10
2.11648e-10
2.11648e-10
2.11648e-10
2.11648e-10
2.11648e-10
2.11648e-10
2.11648e-10
2.11648e-10
2.11648e-10
2.11648e-10
2.11648e-10
2.11648e-10
2.11648e-10
2.11648e-10
2.11648e-10
2.11648e-10
2.11648e-10
2.11648e-10
2.11648e-10
2.11648e-10
2.11648e-10
2.11648e-10
2.11648e-10
2.11648e-10
2.11648e-10
2.11648e-10
2.11648e-10
2.11648e-10
2.11648e-10
2.11648e-10
2.11648e-10
2.11648e-10
2.11648e-10
2.11648e-10
2.11648e-10
2.11648e-10
2.11648e-10
2.11648e-10
2.11648e-10
2.11648e-10
2.11648e-10
2.11648e-10
2.11648e-10
2.11648e-10
2.11648e-10
2.11648e-10
2.11648e-10
2.11648e-10
2.11648e-10
2.11648e-10
2.11648e-10
2.11648e-10
2.11648e-10
2.11648e-10
2.11648e-10
2.11648e-10
2.11648e-10
2.11648e-10
2.116480001e-10
2.116480004e-10
2.116480016e-10
2.116480059e-10
2.116480204e-10
2.116480672e-10
2.116482089e-10
2.116486122e-10
2.11649686e-10
2.116523518e-10
2.116584827e-10
2.116714204e-10
2.116960565e-10
2.117369895e-10
2.117914317e-10
2.118124516e-10
2.118182463e-10
2.118242672e-10
2.118305259e-10
2.118370314e-10
2.118437932e-10
2.118508216e-10
2.11858128e-10
2.11865725e-10
2.118736256e-10
2.118818438e-10
2.118903943e-10
2.118992925e-10
2.119085546e-10
2.119181977e-10
2.119282396e-10
2.119386993e-10
2.119495966e-10
2.119609526e-10
2.119727892e-10
2.119851297e-10
2.119979987e-10
2.120114221e-10
2.120254271e-10
2.120400425e-10
2.120552985e-10
2.120712272e-10
2.120878622e-10
2.121052392e-10
2.121233957e-10
2.121423712e-10
2.121622074e-10
2.121829485e-10
2.122046407e-10
2.122273332e-10
2.122510776e-10
2.122759284e-10
2.12301943e-10
2.123291821e-10
2.123577097e-10
2.12387593e-10
2.124189033e-10
2.124517155e-10
2.124861085e-10
2.125221656e-10
2.125599747e-10
2.125996281e-10
2.126412233e-10
2.12684863e-10
2.127306552e-10
2.127787139e-10
2.12829159e-10
2.128821166e-10
2.129377195e-10
2.129961075e-10
2.130574278e-10
2.131218348e-10
2.131894914e-10
2.132605684e-10
2.133352456e-10
2.134137118e-10
2.134961654e-10
2.135828148e-10
2.136738787e-10
2.137695868e-10
2.138701799e-10
2.13975911e-10
2.140870451e-10
2.142038601e-10
2.143266474e-10
2.144557121e-10
2.145913741e-10
2.14733968e-10
2.148838443e-10
2.150413696e-10
2.152069275e-10
2.153809192e-10
2.155637639e-10
2.157558996e-10
2.159577841e-10
2.161698953e-10
2.163927319e-10
2.166268144e-10
2.168726858e-10
2.171309122e-10
2.174020834e-10
2.176868141e-10
2.179857446e-10
2.182995411e-10
2.186288973e-10
2.189745344e-10
2.193372025e-10
2.197176813e-10
2.201167807e-10
2.205353419e-10
2.209742381e-10
2.214343754e-10
2.219166935e-10
2.224221668e-10
2.22951805e-10
2.23506654e-10
2.24087797e-10
2.246963547e-10
2.253334868e-10
2.260003923e-10
2.266983106e-10
2.274285221e-10
2.281923492e-10
2.289911565e-10
2.298263523e-10
2.306993888e-10
2.316117627e-10
2.325650163e-10
2.335607377e-10
2.346005618e-10
2.356861703e-10
2.36819293e-10
2.380017076e-10
2.392352405e-10
2.405217674e-10
2.418632131e-10
2.432615524e-10
2.447188102e-10
2.462370616e-10
2.478184325e-10
2.49465099e-10
2.511792885e-10
2.529632787e-10
2.548193983e-10
2.567500266e-10
2.587575935e-10
2.608445792e-10
2.630135138e-10
2.652669772e-10
2.676075988e-10
2.700380565e-10
2.725610766e-10
2.751794333e-10
2.778959477e-10
2.80713487e-10
2.836349642e-10
2.866633365e-10
2.898016051e-10
2.930528137e-10
2.964200473e-10
2.999064317e-10
3.035151315e-10
3.072493493e-10
3.111123243e-10
3.151073306e-10
3.192376762e-10
3.235067011e-10
3.279177759e-10
3.324742999e-10
3.371797e-10
3.420374284e-10
3.470509611e-10
3.522237961e-10
3.575594514e-10
3.630614636e-10
3.687333854e-10
3.745787841e-10
3.806012398e-10
3.868043431e-10
3.931916935e-10
3.997668975e-10
4.065335664e-10
4.13495315e-10
4.206557592e-10
4.280185147e-10
4.355871949e-10
4.433654094e-10
4.513567624e-10
4.595648511e-10
4.679932641e-10
4.766455804e-10
4.855253679e-10
4.946361821e-10
5.039815654e-10
5.135650461e-10
5.233901377e-10
5.334603379e-10
5.437791289e-10
5.543499766e-10
5.651763309e-10
5.762616257e-10
5.876092792e-10
5.992226948e-10
6.111052615e-10
6.232603557e-10
6.356913418e-10
6.484015744e-10
6.613944002e-10
6.7467316e-10
6.882411914e-10
7.021018319e-10
7.162584221e-10
7.30714309e-10
7.454728506e-10
7.605374197e-10
7.759114091e-10
7.915982368e-10
8.076013513e-10
8.239242383e-10
8.405704264e-10
8.575434951e-10
8.748470815e-10
8.924848887e-10
9.104606944e-10
9.287783595e-10
9.474418383e-10
9.664551881e-10
9.858225802e-10
1.005548311e-09
1.025636814e-09
1.046092673e-09
1.066920633e-09
1.088125616e-09
1.109712736e-09
1.131687311e-09
1.154054881e-09
1.176821225e-09
1.199992375e-09
1.223574638e-09
1.247574612e-09
1.271999203e-09
1.296855651e-09
1.322151546e-09
1.347894849e-09
1.37409392e-09
1.400757536e-09
1.427894914e-09
1.455515741e-09
1.483630197e-09
1.51224898e-09
1.541383335e-09
1.571045084e-09
1.60124665e-09
1.632001094e-09
1.663322141e-09
1.695224213e-09
1.727722465e-09
1.760832815e-09
1.794571982e-09
1.828957521e-09
1.864007862e-09
1.899742345e-09
1.936181262e-09
1.973345899e-09
2.011258575e-09
2.049942686e-09
2.089422751e-09
2.129724458e-09
2.170874707e-09
2.212901666e-09
2.255834813e-09
2.299704994e-09
2.344544473e-09
2.390386987e-09
2.437267807e-09
2.48522379e-09
2.534293448e-09
2.58451701e-09
2.635936468e-09
2.688595685e-09
2.742540436e-09
2.797818468e-09
2.854479593e-09
2.912575761e-09
2.972161142e-09
3.03329221e-09
3.096027833e-09
3.160429356e-09
3.2265607e-09
3.294488449e-09
3.364281959e-09
3.436013457e-09
3.509758157e-09
3.585594352e-09
3.663603572e-09
3.743870704e-09
3.826484133e-09
3.911535876e-09
3.999121767e-09
4.089341627e-09
4.182299414e-09
4.278103419e-09
4.376866477e-09
4.4787062e-09
4.583745216e-09
4.69211144e-09
4.803938362e-09
4.919365362e-09
5.038538069e-09
5.161608739e-09
5.288736689e-09
5.420088773e-09
5.555839913e-09
5.696173695e-09
5.841283035e-09
5.991370929e-09
6.146651303e-09
6.30734997e-09
6.473705714e-09
6.645971527e-09
6.824416016e-09
7.009325002e-09
7.201003358e-09
7.399777104e-09
7.605995815e-09
7.820035385e-09
8.042301199e-09
8.273231793e-09
8.513303062e-09
8.763033121e-09
9.02298791e-09
9.293787667e-09
9.576114421e-09
9.870720646e-09
1.017843928e-08
1.050019535e-08
1.083701937e-08
1.119006297e-08
1.156061693e-08
1.195013213e-08
1.236024385e-08
1.279279995e-08
1.324989362e-08
1.373390134e-08
1.4247527e-08
1.479385309e-08
1.537640019e-08
1.599919606e-08
1.666685589e-08
1.738467551e-08
1.815873974e-08
1.899604825e-08
1.99046618e-08
2.089387219e-08
2.197439979e-08
2.315862309e-08
2.446084537e-08
2.589760484e-08
2.748803491e-08
2.925428295e-08
3.12219971e-08
3.342089195e-08
3.588540604e-08
3.86554661e-08
4.177737521e-08
4.530484514e-08
4.930019611e-08
5.383575118e-08
5.899545687e-08
6.487676647e-08
7.159282892e-08
7.927503235e-08
8.807596013e-08
9.817282578e-08
1.097714646e-07
1.231109717e-07
1.384690914e-07
1.561684786e-07
1.765839747e-07
2.001510587e-07
2.273756675e-07
2.588456017e-07
2.952437758e-07
3.373636077e-07
3.861268933e-07
4.426045638e-07
5.080407908e-07
5.838809742e-07
6.718042364e-07
7.737611427e-07
8.92017484e-07
1.029205087e-06
1.188380771e-06
1.373094746e-06
1.587469947e-06
1.836294031e-06
2.125126037e-06
2.460419998e-06
2.849668179e-06
3.301566969e-06
3.826208958e-06
4.435305228e-06
5.142442477e-06
5.963380296e-06
6.916394617e-06
8.022674283e-06
9.306778556e-06
1.07971645e-05
1.252679433e-05
1.453383403e-05
1.686245606e-05
1.956376035e-05
2.269682933e-05
2.632993454e-05
3.054191374e-05
3.542373929e-05
4.108029987e-05
4.763241896e-05
5.521913427e-05
6.400026286e-05
7.415927598e-05
8.590650651e-05
9.9482709e-05
0.0001151629878
0.0001332611025
0.0001541341508
0.0001781876171
0.0002058807604
0.0002377322957
0.0002743263029
0.0003163182708
0.0003644411555
0.0004195113058
0.0004824340762
0.0005542089228
0.0006359337564
0.0007288083117
0.0008341362933
0.0009533260679
0.001087889709
0.001239440241
0.001409687009
0.001600429169
0.001813547396
0.002050994003
0.002314781752
0.002606971722
0.002929660656
0.003284968263
0.003675024923
0.004101960278
0.00456789311
0.005074922885
0.0056251232
0.006220537517
0.006863176928
0.007555020492
0.008298017861
0.009094094522
0.009945160484
0.01085312485
0.01181992374
0.01284715744
0.01393795926
0.01509227632
0.01631893499
0.01762037598
0.0190012921
0.02043663154
0.0219467596
0.02353448268
0.02520254196
0.02695359598
0.02878976015
0.03071317648
0.03272634477
0.03483173617
0.0370323276
0.0393295392
0.04176153685
0.04425612143
0.04684886956
0.04954037172
0.05235894125
0.0552422201
0.0582151796
0.06127381778
0.06441534131
0.0676245333
0.07089646099
0.0742229049
0.07759427005
0.08099940277
0.08442558059
0.08786689053
0.09128843283
0.09469512876
0.09804467887
0.1013343032
0.104550125
0.1076802443
0.1107151759
0.1136625945
0.1165246641
0.1192743956
0.121907289
0.1244213594
0.12681597
0.1290917667
0.1312511601
0.1332977534
0.1352348849
0.1370479725
0.1387644689
0.1403991217
0.1419428829
0.1434016272
0.1447808061
0.1460854084
0.1473200159
0.1484884815
0.149595541
0.1506445592
0.1516390858
0.1525824695
0.1534778645
0.154328237
0.1551363713
0.1559048771
0.1566361975
0.1573326168
0.1579962698
0.15862915
0.1592331187
0.159809913
0.1603611543
0.1608883555
0.1613929285
0.1618761913
0.162339374
0.1627836252
0.1632100175
0.1636195528
0.1640131672
0.1643917357
0.1647560764
0.1651069545
0.1654450859
0.1657711407
0.1660857466
0.1663894914
0.1666829264
0.1669665684
0.1672409021
0.1675063828
0.1677634379
0.168012469
0.1682538538
0.1684879473
0.168715084
0.1689355786
0.1691497277
0.1693578107
0.1695600915
0.1697568188
0.1699482278
0.1701345402
0.1703159662
0.170492704
0.1706649417
0.1708328571
0.1709966186
0.1711563862
0.1713123112
0.1714645375
0.1716132017
0.1717584334
0.171900356
0.1720390867
0.1721747372
0.1723074138
0.1724372175
0.1725642449
0.1726885881
0.1728103348
0.1729295687
0.17304637
0.1731608152
0.1732729773
0.1733829262
0.1734907291
0.1735964499
0.17370015
0.1738018884
0.1739017214
0.1739997032
0.1740958857
0.174190319
0.1742830508
0.1743741274
0.1744635929
0.17455149
0.1746378597
0.1747227415
0.1748061735
0.1748881923
0.1749688332
0.1750481303
0.1751261165
0.1752028235
0.1752782819
0.1753525214
0.1754255705
0.1754974568
0.1755682071
0.1756378473
0.1757064022
0.1757738963
0.1758403528
0.1759057945
0.1759702434
0.1760337209
0.1760962476
0.1761578435
0.1762185282
0.1762783205
0.1763372387
0.1763953006
0.1764525235
0.1765089243
0.1765645192
0.1766193241
0.1766733544
0.1767266252
0.176779151
0.1768309461
0.1768820242
0.1769323988
0.1769820831
0.1770310898
0.1770794314
0.1771271199
0.1771741672
0.1772205848
0.177266384
0.1773115756
0.1773561705
0.177400179
0.1774436112
0.1774864772
0.1775287866
0.1775705489
0.1776117734
0.177652469
0.1776926447
0.177732309
0.1777714704
0.177810137
0.1778483171
0.1778860184
0.1779232487
0.1779600155
0.1779963261
0.1780321879
0.1780676078
0.1781025928
0.1781371496
0.1781712849
0.1782050051
0.1782383167
0.1782712258
0.1783037385
0.1783358608
0.1783675986
0.1783989576
0.1784299434
0.1784605616
0.1784908175
0.1785207165
0.1785502637
0.1785794642
0.1786083231
0.1786368452
0.1786650354
0.1786928984
0.1787204388
0.1787476612
0.17877457
0.1788011696
0.1788274644
0.1788534585
0.1788791561
0.1789045612
0.178929678
0.1789545102
0.1789790618
0.1790033366
0.1790273383
0.1790510706
0.179074537
0.1790977411
0.1791206864
0.1791433763
0.1791658142
0.1791880034
0.1792099471
0.1792316485
0.1792531108
0.1792743371
0.1792953304
0.1793160937
0.1793366299
0.179356942
0.1793770328
0.1793969051
0.1794165616
0.1794360052
0.1794552384
0.1794742639
0.1794930844
0.1795117022
0.17953012
0.1795483403
0.1795663654
0.1795841978
0.1796018399
0.1796192939
0.1796365621
0.1796536469
0.1796705505
0.1796872749
0.1797038225
0.1797201953
0.1797363955
0.179752425
0.179768286
0.1797839804
0.1797995102
0.1798148774
0.1798300839
0.1798451316
0.1798600224
0.1798747581
0.1798893405
0.1799037714
0.1799180526
0.1799321859
0.1799461729
0.1799600153
0.1799737149
0.1799872732
0.180000692
0.1800139727
0.1800271171
0.1800401265
0.1800530027
0.1800657471
0.1800783612
0.1800908465
0.1801032045
0.1801154366
0.1801275442
0.1801395287
0.1801513916
0.1801631341
0.1801747577
0.1801862637
0.1801976533
0.180208928
0.1802200889
0.1802311374
0.1802420747
0.180252902
0.1802636206
0.1802742317
0.1802847364
0.1802951359
0.1803054314
0.1803156241
0.180325715
0.1803357053
0.1803455961
0.1803553885
0.1803650836
0.1803746824
0.1803841859
0.1803935953
0.1804029116
0.1804121357
0.1804212687
0.1804303115
0.1804392652
0.1804481307
0.1804569089
0.1804656009
0.1804742075
0.1804827296
0.1804911683
0.1804995243
0.1805077986
0.180515992
0.1805241055
0.1805321398
0.1805400959
0.1805479745
0.1805557766
0.1805635029
0.1805711542
0.1805787313
0.1805862351
0.1805936663
0.1806010257
0.1806083141
0.1806155321
0.1806226807
0.1806297604
0.1806367721
0.1806437165
0.1806505943
0.1806574061
0.1806641528
0.1806708349
0.1806774533
0.1806840084
0.1806905011
0.180696932
0.1807033018
0.180709611
0.1807158603
0.1807220505
0.180728182
0.1807342555
0.1807402717
0.1807462311
0.1807521343
0.180757982
0.1807637747
0.180769513
0.1807751974
0.1807808286
0.1807864071
0.1807919335
0.1807974083
0.180802832
0.1808082052
0.1808135285
0.1808188023
0.1808240272
0.1808292037
0.1808343323
0.1808394134
0.1808444477
0.1808494356
0.1808543776
0.1808592741
0.1808641257
0.1808689329
0.180873696
0.1808784155
0.180883092
0.1808877258
0.1808923175
0.1808968674
0.180901376
0.1809058437
0.180910271
0.1809146582
0.1809190059
0.1809233144
0.1809275841
0.1809318154
0.1809360088
0.1809401646
0.1809442833
0.1809483652
0.1809524107
0.1809564201
0.180960394
0.1809643325
0.1809682362
0.1809721054
0.1809759404
0.1809797415
0.1809835093
0.1809872439
0.1809909457
0.1809946152
0.1809982525
0.1810018581
0.1810054324
0.1810089755
0.1810124878
0.1810159698
0.1810194216
0.1810228436
0.1810262361
0.1810295994
0.1810329338
0.1810362396
0.1810395172
0.1810427667
0.1810459885
0.181049183
0.1810523503
0.1810554907
0.1810586045
0.1810616921
0.1810647536
0.1810677894
0.1810707997
0.1810737848
0.1810767448
0.1810796802
0.1810825911
0.1810854779
0.1810883406
0.1810911797
0.1810939952
0.1810967876
0.1810995569
0.1811023036
0.1811050277
0.1811077295
0.1811104092
0.1811130671
0.1811157034
0.1811183183
0.181120912
0.1811234848
0.1811260368
0.1811285683
0.1811310795
0.1811335705
0.1811360416
0.181138493
0.1811409249
0.1811433375
0.1811457309
0.1811481054
0.1811504612
0.1811527984
0.1811551173
0.181157418
0.1811597007
0.1811619656
0.1811642128
0.1811664426
0.1811686551
0.1811708506
0.1811730291
0.1811751908
0.1811773359
0.1811794646
0.1811815771
0.1811836734
0.1811857539
0.1811878186
0.1811898676
0.1811919013
0.1811939196
0.1811959228
0.1811979111
0.1811998845
0.1812018433
0.1812037875
0.1812057174
0.1812076332
0.1812095348
0.1812114226
0.1812132966
0.181215157
0.181217004
0.1812188377
0.1812206582
0.1812224658
0.1812242605
0.1812260425
0.1812278119
0.181229569
0.1812313138
0.1812330466
0.1812347674
0.1812364765
0.1812381739
0.1812398599
0.1812415346
0.1812431982
0.1812448508
0.1812464926
0.1812481238
0.1812497445
0.181251355
0.1812529553
0.1812545458
0.1812561266
0.1812576978
0.1812592597
0.1812608125
0.1812623564
0.1812638916
0.1812654184
0.1812669369
0.1812684474
0.1812699502
0.1812714454
0.1812729334
0.1812744144
0.1812758887
0.1812773565
0.1812788182
0.181280274
0.1812817244
0.1812831698
0.1812846107
0.181286048
0.1812977239
0.1813138172
0.1813279283
0.181340104
0.1813503889
0.1813588301
0.1813654724
0.1813703573
0.1813735233
0.1813750059
0.1813748385
0.1813730525
0.1813696788
0.1813647472
0.1813582875
0.1813503294
0.1813409027
0.1813300375
0.181317764
0.1813041123
0.1812891125
0.1812727945
0.1812551875
0.1812363199
0.1812162189
0.1811949107
0.1811724197
0.1811487688
0.181123979
0.1810980696
0.181071058
0.1810429601
0.1810137904
0.1809835623
0.1809522887
0.1809199823
0.1808866567
0.1808523264
0.1808170084
0.1807807225
0.1807434923
0.1807053462
0.1806663181
0.1806264483
0.1805857841
0.1805443805
0.1805023008
0.1804596167
0.1804164085
0.180372765
0.1803287834
0.1802845686
0.1802402327
0.180195894
0.1801516757
0.1801077052
0.1800641121
0.1800210269
0.1799785797
0.179936898
0.1798961054
0.1798563202
0.1798176533
0.1797802073
0.179744075
0.1797093381
0.1796760669
0.179644319
0.1796141391
0.1795855589
0.1795585969
0.1795332588
0.1795095379
0.1794874157
0.1794668632
0.179447841
0.1794303015
0.1794141893
0.1793994428
0.1793859954
0.1793737769
0.1793627148
0.1793527351
0.1793437638
0.1793357278
0.1793285554
0.1793221776
0.1793165281
0.1793115443
0.1793071669
0.1793033407
0.1793000143
0.1792971402
0.1792946746
0.1792925771
0.1792908106
0.1792893412
0.1792881373
0.17928717
0.1792864125
0.1792858398
0.1792854287
0.1792851576
0.1792850063
0.1792849559
0.1792849888
0.179285089
0.1792852413
0.1792854323
0.1792856497
0.1792858827
0.1792861218
0.1792863593
0.1792865884
0.1792868041
0.1792870026
0.1792871814
0.1792873391
0.1792874754
0.179287591
0.1792876872
0.179287766
0.1792878297
0.1792878812
0.1792879232
0.1792879585
0.1792879898
0.1792880197
0.1792880504
0.1792880835
0.1792881206
0.1792881627
0.1792882104
0.1792882639
0.179288323
0.1792883874
0.1792884563
0.179288529
0.1792886044
0.1792886814
0.1792887591
0.1792888364
0.1792889124
0.1792889863
0.1792890574
0.1792891251
0.1792891891
0.1792892491
0.1792893051
0.179289357
0.179289405
0.1792894493
0.1792894902
0.179289528
0.179289563
0.1792895956
0.1792896261
0.1792896548
0.179289682
0.1792897079
0.1792897327
0.1792897566
0.1792897797
0.1792898021
0.1792898239
0.179289845
0.1792898656
0.1792898856
0.179289905
0.1792899238
0.1792899419
0.1792899594
0.1792899763
0.1792899923
0.1792900076
0.1792900221
0.1792900357
0.1792900484
0.17929006
0.1792900706
0.1792900801
0.1792900884
0.1792900954
0.1792901011
0.1792901055
0.1792901086
0.1792901102
0.1792901104
0.1792901093
0.1792901068
0.1792901029
0.1792900979
0.1792900917
0.1792900844
0.1792900762
0.1792900671
0.1792900574
0.1792900472
0.1792900366
0.1792900257
0.1792900149
0.1792900041
0.1792899935
0.1792899834
0.1792899737
0.1792899648
0.1792899566
0.1792899493
0.179289943
0.1792899377
0.1792899335
0.1792899305
0.1792899286
0.179289928
0.1792899285
0.1792899302
0.179289933
0.1792899369
0.1792899419
0.1792899478
0.1792899547
0.1792899624
0.1792899709
0.1792899801
0.1792899899
0.1792900002
0.1792900109
0.1792900219
0.1792900332
0.1792900447
0.1792900563
0.1792900679
0.1792900794
0.1792900908
0.179290102
0.1792901129
0.1792901236
0.1792901339
0.1792901437
0.1792901532
0.1792901622
0.1792901707
0.1792901787
0.1792901861
0.1792901931
0.1792901994
0.1792902052
0.1792902104
0.1792902148
0.179290218
)
;

boundaryField
{
    inlet
    {
        type            fixedValue;
        value           uniform 0;
    }
    outlet
    {
        type            zeroGradient;
    }
    wall
    {
        type            empty;
    }
}


// ************************************************************************* //
