/*--------------------------------*- C++ -*----------------------------------*\
  =========                 |
  \\      /  F ield         | OpenFOAM: The Open Source CFD Toolbox
   \\    /   O peration     | Website:  https://openfoam.org
    \\  /    A nd           | Version:  7
     \\/     M anipulation  |
\*---------------------------------------------------------------------------*/
FoamFile
{
    version     2.0;
    format      ascii;
    class       volScalarField;
    location    "0.000558243009";
    object      CO_0;
}
// * * * * * * * * * * * * * * * * * * * * * * * * * * * * * * * * * * * * * //

dimensions      [0 0 0 0 0 0 0];

internalField   nonuniform List<scalar> 
1500
(
1.074508151e-10
4.206434725e-10
8.69048848e-10
1.31012469e-09
1.644440103e-09
1.852556356e-09
1.962983864e-09
2.014098459e-09
2.035080247e-09
2.042818038e-09
2.045409803e-09
2.046205592e-09
2.046431354e-09
2.046490932e-09
2.046505642e-09
2.046509057e-09
2.046509806e-09
2.046509962e-09
2.046509993e-09
2.046509999e-09
2.04651e-09
2.04651e-09
2.04651e-09
2.04651e-09
2.04651e-09
2.04651e-09
2.04651e-09
2.04651e-09
2.04651e-09
2.04651e-09
2.04651e-09
2.04651e-09
2.04651e-09
2.04651e-09
2.04651e-09
2.04651e-09
2.04651e-09
2.04651e-09
2.04651e-09
2.04651e-09
2.04651e-09
2.04651e-09
2.04651e-09
2.04651e-09
2.04651e-09
2.04651e-09
2.04651e-09
2.04651e-09
2.04651e-09
2.04651e-09
2.04651e-09
2.04651e-09
2.04651e-09
2.04651e-09
2.04651e-09
2.04651e-09
2.04651e-09
2.04651e-09
2.04651e-09
2.04651e-09
2.04651e-09
2.04651e-09
2.04651e-09
2.04651e-09
2.04651e-09
2.04651e-09
2.04651e-09
2.04651e-09
2.04651e-09
2.04651e-09
2.04651e-09
2.04651e-09
2.04651e-09
2.04651e-09
2.04651e-09
2.04651e-09
2.04651e-09
2.04651e-09
2.04651e-09
2.04651e-09
2.04651e-09
2.04651e-09
2.04651e-09
2.04651e-09
2.04651e-09
2.04651e-09
2.04651e-09
2.04651e-09
2.04651e-09
2.04651e-09
2.04651e-09
2.04651e-09
2.04651e-09
2.04651e-09
2.04651e-09
2.04651e-09
2.04651e-09
2.04651e-09
2.04651e-09
2.04651e-09
2.04651e-09
2.04651e-09
2.04651e-09
2.04651e-09
2.04651e-09
2.04651e-09
2.04651e-09
2.04651e-09
2.04651e-09
2.04651e-09
2.04651e-09
2.04651e-09
2.04651e-09
2.04651e-09
2.04651e-09
2.04651e-09
2.04651e-09
2.04651e-09
2.04651e-09
2.04651e-09
2.04651e-09
2.04651e-09
2.04651e-09
2.04651e-09
2.04651e-09
2.04651e-09
2.04651e-09
2.04651e-09
2.04651e-09
2.04651e-09
2.04651e-09
2.04651e-09
2.04651e-09
2.04651e-09
2.04651e-09
2.04651e-09
2.04651e-09
2.04651e-09
2.04651e-09
2.04651e-09
2.04651e-09
2.04651e-09
2.04651e-09
2.04651e-09
2.04651e-09
2.04651e-09
2.04651e-09
2.04651e-09
2.04651e-09
2.04651e-09
2.04651e-09
2.04651e-09
2.04651e-09
2.04651e-09
2.04651e-09
2.04651e-09
2.04651e-09
2.04651e-09
2.04651e-09
2.04651e-09
2.04651e-09
2.04651e-09
2.04651e-09
2.04651e-09
2.04651e-09
2.04651e-09
2.04651e-09
2.04651e-09
2.04651e-09
2.04651e-09
2.04651e-09
2.04651e-09
2.04651e-09
2.04651e-09
2.04651e-09
2.04651e-09
2.04651e-09
2.04651e-09
2.04651e-09
2.04651e-09
2.04651e-09
2.04651e-09
2.04651e-09
2.04651e-09
2.04651e-09
2.04651e-09
2.04651e-09
2.04651e-09
2.04651e-09
2.04651e-09
2.04651e-09
2.04651e-09
2.04651e-09
2.04651e-09
2.04651e-09
2.04651e-09
2.04651e-09
2.04651e-09
2.04651e-09
2.04651e-09
2.04651e-09
2.04651e-09
2.04651e-09
2.04651e-09
2.04651e-09
2.04651e-09
2.04651e-09
2.04651e-09
2.04651e-09
2.04651e-09
2.04651e-09
2.04651e-09
2.04651e-09
2.04651e-09
2.04651e-09
2.04651e-09
2.04651e-09
2.04651e-09
2.04651e-09
2.04651e-09
2.04651e-09
2.04651e-09
2.04651e-09
2.04651e-09
2.04651e-09
2.04651e-09
2.04651e-09
2.04651e-09
2.04651e-09
2.04651e-09
2.04651e-09
2.04651e-09
2.04651e-09
2.046510001e-09
2.046510004e-09
2.046510013e-09
2.046510044e-09
2.046510143e-09
2.046510439e-09
2.046511287e-09
2.046513587e-09
2.046519511e-09
2.046533943e-09
2.046567143e-09
2.046639e-09
2.046784596e-09
2.047058591e-09
2.047531084e-09
2.048258634e-09
2.049200259e-09
2.049644776e-09
2.049753064e-09
2.049865667e-09
2.049982821e-09
2.050104721e-09
2.05023156e-09
2.050363548e-09
2.050500909e-09
2.050643886e-09
2.050792737e-09
2.050947735e-09
2.051109166e-09
2.051277333e-09
2.05145255e-09
2.051635149e-09
2.051825476e-09
2.052023895e-09
2.052230787e-09
2.052446551e-09
2.052671607e-09
2.052906394e-09
2.053151372e-09
2.053407025e-09
2.053673858e-09
2.053952402e-09
2.054243213e-09
2.054546872e-09
2.054863989e-09
2.055195204e-09
2.055541185e-09
2.055902631e-09
2.056280277e-09
2.056674889e-09
2.05708727e-09
2.057518259e-09
2.057968735e-09
2.058439616e-09
2.058931864e-09
2.059446481e-09
2.059984518e-09
2.06054707e-09
2.061135282e-09
2.061750352e-09
2.062393528e-09
2.063066114e-09
2.063769471e-09
2.064505018e-09
2.065274237e-09
2.066078673e-09
2.066919937e-09
2.067799706e-09
2.068719732e-09
2.069681835e-09
2.070687916e-09
2.07173995e-09
2.072839996e-09
2.073990194e-09
2.075192774e-09
2.076450051e-09
2.077764436e-09
2.079138434e-09
2.080574648e-09
2.082075781e-09
2.083644643e-09
2.08528415e-09
2.086997328e-09
2.08878732e-09
2.090657382e-09
2.092610895e-09
2.09465136e-09
2.09678241e-09
2.099007805e-09
2.101331441e-09
2.103757353e-09
2.106289715e-09
2.10893285e-09
2.111691225e-09
2.114569463e-09
2.117572343e-09
2.1207048e-09
2.123971937e-09
2.127379021e-09
2.130931491e-09
2.134634959e-09
2.138495217e-09
2.142518236e-09
2.146710176e-09
2.151077381e-09
2.155626392e-09
2.160363942e-09
2.165296967e-09
2.170432603e-09
2.175778193e-09
2.181341291e-09
2.187129662e-09
2.193151288e-09
2.199414369e-09
2.205927331e-09
2.21269882e-09
2.219737713e-09
2.227053118e-09
2.234654376e-09
2.242551064e-09
2.250752997e-09
2.259270234e-09
2.268113072e-09
2.277292057e-09
2.286817982e-09
2.296701887e-09
2.306955064e-09
2.317589056e-09
2.32861566e-09
2.340046928e-09
2.351895167e-09
2.364172941e-09
2.376893068e-09
2.390068629e-09
2.403712958e-09
2.417839648e-09
2.43246255e-09
2.447595775e-09
2.463253686e-09
2.479450906e-09
2.496202313e-09
2.513523037e-09
2.531428464e-09
2.549934231e-09
2.569056224e-09
2.588810577e-09
2.609213671e-09
2.630282131e-09
2.652032823e-09
2.674482852e-09
2.697649559e-09
2.721550518e-09
2.746203535e-09
2.77162664e-09
2.797838089e-09
2.824856356e-09
2.852700133e-09
2.881388323e-09
2.910940041e-09
2.941374602e-09
2.972711527e-09
3.004970529e-09
3.038171518e-09
3.072334588e-09
3.107480022e-09
3.143628279e-09
3.180799997e-09
3.219015985e-09
3.258297219e-09
3.298664841e-09
3.340140153e-09
3.382744612e-09
3.42649983e-09
3.471427568e-09
3.517549734e-09
3.564888381e-09
3.613465703e-09
3.663304033e-09
3.714425843e-09
3.766853739e-09
3.820610465e-09
3.875718895e-09
3.932202043e-09
3.990083054e-09
4.04938521e-09
4.110131931e-09
4.172346774e-09
4.236053443e-09
4.301275784e-09
4.368037797e-09
4.436363636e-09
4.506277617e-09
4.577804226e-09
4.650968126e-09
4.725794164e-09
4.802307386e-09
4.880533043e-09
4.960496605e-09
5.042223777e-09
5.125740509e-09
5.211073016e-09
5.298247793e-09
5.387291636e-09
5.478231659e-09
5.571095318e-09
5.665910434e-09
5.762705218e-09
5.861508297e-09
5.962348744e-09
6.065256103e-09
6.170260428e-09
6.277392313e-09
6.386682927e-09
6.498164056e-09
6.611868136e-09
6.727828303e-09
6.846078431e-09
6.966653183e-09
7.089588056e-09
7.214919435e-09
7.342684645e-09
7.472922008e-09
7.605670904e-09
7.740971827e-09
7.878866452e-09
8.019397705e-09
8.162609827e-09
8.30854845e-09
8.457260673e-09
8.608795137e-09
8.763202111e-09
8.920533574e-09
9.080843306e-09
9.244186976e-09
9.410622239e-09
9.580208835e-09
9.75300869e-09
9.929086021e-09
1.010850745e-08
1.02913421e-08
1.047766175e-08
1.066754092e-08
1.0861057e-08
1.105829039e-08
1.125932466e-08
1.146424664e-08
1.167314658e-08
1.188611831e-08
1.21032594e-08
1.232467129e-08
1.255045948e-08
1.278073368e-08
1.301560799e-08
1.325520111e-08
1.349963648e-08
1.374904249e-08
1.40035527e-08
1.426330604e-08
1.452844699e-08
1.479912587e-08
1.507549898e-08
1.535772893e-08
1.564598484e-08
1.594044258e-08
1.62412851e-08
1.654870263e-08
1.686289305e-08
1.718406212e-08
1.751242383e-08
1.784820075e-08
1.819162431e-08
1.854293523e-08
1.890238385e-08
1.927023053e-08
1.964674609e-08
2.003221223e-08
2.0426922e-08
2.083118028e-08
2.124530433e-08
2.166962433e-08
2.210448384e-08
2.255024068e-08
2.300726744e-08
2.347595204e-08
2.395669864e-08
2.444992842e-08
2.495608042e-08
2.54756125e-08
2.600900235e-08
2.655674854e-08
2.711937169e-08
2.76974157e-08
2.82914491e-08
2.890206654e-08
2.952989047e-08
3.01755726e-08
3.083979624e-08
3.152327826e-08
3.22267714e-08
3.295106679e-08
3.369699685e-08
3.446543854e-08
3.525731649e-08
3.607360675e-08
3.691534098e-08
3.778361112e-08
3.867957445e-08
3.960445928e-08
4.055957118e-08
4.154629996e-08
4.256612743e-08
4.362063596e-08
4.471151813e-08
4.584058734e-08
4.700978974e-08
4.822121748e-08
4.947712352e-08
5.077993813e-08
5.213228735e-08
5.353701361e-08
5.49971987e-08
5.651618956e-08
5.809762706e-08
5.974547819e-08
6.146407209e-08
6.325814041e-08
6.513286239e-08
6.709391548e-08
6.914753192e-08
7.130056215e-08
7.356054587e-08
7.593579164e-08
7.843546611e-08
8.106969398e-08
8.38496701e-08
8.678778513e-08
8.989776637e-08
9.319483577e-08
9.669588701e-08
1.004196842e-07
1.043870845e-07
1.086212881e-07
1.131481184e-07
1.179963365e-07
1.231979936e-07
1.287888265e-07
1.348087015e-07
1.413021124e-07
1.483187384e-07
1.559140712e-07
1.641501177e-07
1.730961888e-07
1.82829784e-07
1.934375847e-07
2.050165677e-07
2.176752553e-07
2.315351175e-07
2.467321454e-07
2.634186166e-07
2.817650761e-07
3.019625588e-07
3.242250826e-07
3.48792447e-07
3.759333716e-07
4.059490183e-07
4.39176943e-07
4.759955292e-07
5.168289616e-07
5.621528074e-07
6.125002767e-07
6.684692466e-07
7.30730141e-07
8.000347708e-07
8.772262504e-07
9.63250122e-07
1.059166834e-06
1.16616574e-06
1.285580795e-06
1.418908171e-06
1.567826004e-06
1.734216544e-06
1.920190999e-06
2.128117393e-06
2.360651799e-06
2.620773366e-06
2.911823587e-06
3.237550321e-06
3.60215714e-06
4.010358639e-06
4.467442422e-06
4.979338566e-06
5.552697439e-06
6.194976885e-06
6.91453986e-06
7.720763777e-06
8.62416291e-06
9.636525402e-06
1.077106656e-05
1.204260036e-05
1.346773114e-05
1.506506798e-05
1.685546409e-05
1.886228423e-05
2.111170309e-05
2.363303814e-05
2.645912051e-05
2.962670813e-05
3.317694529e-05
3.715587353e-05
4.161499876e-05
4.661192007e-05
5.221102595e-05
5.848426385e-05
6.551198906e-05
7.338389941e-05
8.220006171e-05
9.2072036e-05
0.0001031241031
0.0001154946001
0.0001293373677
0.000144823311
0.0001621420741
0.0001815038255
0.0002031411483
0.0002273110234
0.0002542968916
0.0002844107707
0.000317995398
0.0003554263618
0.0003971141724
0.0004435062175
0.0004950885338
0.0005523873188
0.0006159700962
0.0006864464442
0.0007644681901
0.0008507289757
0.0009459631066
0.001050943607
0.001166479425
0.001293411763
0.001432609532
0.001584963986
0.00175138262
0.001932782476
0.002130083028
0.002344198861
0.002576032393
0.002826466873
0.003096359925
0.003386537851
0.003697790909
0.004030869708
0.004386482846
0.004765295837
0.005167931307
0.00559497051
0.006046955844
0.006524394539
0.007027763189
0.007557513209
0.008114077634
0.008697880725
0.009309354724
0.009948764579
0.01061712841
0.01131390586
0.01204277512
0.01280423745
0.01359984894
0.01441762565
0.01526653274
0.01614724749
0.01706034065
0.01800618044
0.01898463574
0.01999536308
0.02103801615
0.02211206829
0.02321707655
0.02435157335
0.02552903694
0.02671726821
0.02792759839
0.02915583926
0.03040729693
0.03165171474
0.03289065003
0.03411330841
0.03530880129
0.03645995566
0.03755245099
0.03856962661
0.03949370357
0.04030626221
0.04098907895
0.04152652165
0.04190274017
0.04211071026
0.04214653074
0.04201449449
0.04172417239
0.04128993598
0.04072949027
0.04005947095
0.03929735936
0.03846754799
0.03758902562
0.03667869156
0.03575128643
0.03481929992
0.0338927436
0.03297954257
0.03208616326
0.03122448434
0.03038917518
0.02957841462
0.02879899688
0.0280512137
0.0273349137
0.02664964494
0.02599473848
0.02536953234
0.02477273034
0.02420344291
0.02366054326
0.02314286778
0.02264923824
0.02217847999
0.02172943621
0.02130097859
0.02089201504
0.02050149503
0.02012841293
0.01977181001
0.01943077514
0.0191044448
0.01879200226
0.01849267646
0.01820574047
0.01793050974
0.01766634027
0.01741262659
0.01716879983
0.01693432569
0.01670870254
0.01649145949
0.01628215455
0.01608037287
0.01588572507
0.01569784563
0.01551639136
0.01534104
0.01517148883
0.01500745342
0.01484866644
0.01469487654
0.0145458473
0.01440135626
0.01426119399
0.01412516328
0.01399307829
0.01386476383
0.0137400547
0.01361879498
0.01350083751
0.01338604326
0.01327428084
0.01316542602
0.01305936126
0.01295597533
0.01285516284
0.01275682396
0.01266086402
0.01256719323
0.01247572635
0.01238638243
0.01229908458
0.01221375966
0.01213033814
0.01204875382
0.01196894367
0.01189084764
0.01181440848
0.01173957161
0.01166628492
0.01159449868
0.01152416536
0.01145523958
0.01138767789
0.01132143876
0.01125648244
0.01119277084
0.01113026748
0.01106893739
0.01100874704
0.01094966424
0.0108916581
0.01083469897
0.01077875833
0.01072380879
0.01066982399
0.0106167786
0.0105646482
0.01051340931
0.01046303928
0.01041351631
0.01036481937
0.01031692817
0.01026982314
0.01022348538
0.01017789666
0.01013303935
0.01008889641
0.01004545139
0.01000268836
0.009960591908
0.009919147137
0.00987833961
0.009838155352
0.009798580821
0.009759602896
0.009721208858
0.009683386373
0.009646123476
0.009609408558
0.009573230354
0.009537577923
0.009502440643
0.009467808193
0.009433670546
0.009400017955
0.009366840944
0.009334130298
0.009301877053
0.009270072486
0.009238708109
0.009207775659
0.00917726709
0.009147174564
0.009117490448
0.009088207303
0.009059317879
0.009030815108
0.009002692099
0.008974942133
0.008947558652
0.00892053526
0.008893865717
0.008867543929
0.008841563948
0.008815919968
0.008790606315
0.00876561745
0.00874094796
0.008716592554
0.008692546065
0.008668803438
0.008645359734
0.00862221012
0.008599349873
0.00857677437
0.00855447909
0.008532459609
0.008510711597
0.008489230816
0.008468013116
0.008447054438
0.008426350801
0.008405898312
0.008385693154
0.00836573159
0.008346009956
0.008326524663
0.008307272195
0.008288249103
0.008269452007
0.008250877594
0.008232522615
0.008214383881
0.008196458269
0.008178742712
0.008161234202
0.008143929789
0.008126826576
0.00810992172
0.008093212434
0.008076695978
0.008060369664
0.008044230854
0.008028276954
0.008012505421
0.007996913754
0.007981499498
0.007966260242
0.007951193615
0.007936297289
0.007921568976
0.007907006428
0.007892607435
0.007878369824
0.007864291462
0.007850370247
0.007836604117
0.007822991043
0.007809529027
0.007796216108
0.007783050355
0.00777002987
0.007757152784
0.007744417259
0.007731821489
0.007719363693
0.007707042121
0.00769485505
0.007682800784
0.007670877655
0.007659084019
0.00764741826
0.007635878784
0.007624464024
0.007613172438
0.007602002503
0.007590952725
0.007580021628
0.00756920776
0.007558509691
0.007547926013
0.007537455336
0.007527096295
0.007516847541
0.007506707747
0.007496675605
0.007486749826
0.007476929139
0.007467212293
0.007457598053
0.007448085203
0.007438672543
0.007429358892
0.007420143084
0.007411023969
0.007402000416
0.007393071307
0.007384235539
0.007375492027
0.0073668397
0.007358277501
0.007349804386
0.007341419329
0.007333121316
0.007324909345
0.00731678243
0.007308739597
0.007300779886
0.007292902349
0.007285106051
0.007277390068
0.00726975349
0.007262195418
0.007254714965
0.007247311256
0.007239983427
0.007232730624
0.007225552006
0.007218446742
0.007211414012
0.007204453005
0.007197562923
0.007190742975
0.007183992382
0.007177310374
0.007170696192
0.007164149085
0.007157668312
0.007151253142
0.007144902851
0.007138616726
0.007132394062
0.007126234162
0.007120136339
0.007114099913
0.007108124214
0.007102208578
0.007096352351
0.007090554886
0.007084815543
0.007079133692
0.007073508708
0.007067939975
0.007062426884
0.007056968833
0.007051565228
0.007046215481
0.007040919011
0.007035675245
0.007030483616
0.007025343562
0.007020254531
0.007015215975
0.007010227353
0.007005288131
0.007000397779
0.006995555775
0.006990761604
0.006986014755
0.006981314722
0.006976661009
0.006972053121
0.006967490571
0.006962972877
0.006958499563
0.006954070159
0.006949684198
0.00694534122
0.00694104077
0.006936782399
0.006932565661
0.006928390117
0.006924255331
0.006920160874
0.006916106321
0.00691209125
0.006908115247
0.006904177899
0.006900278801
0.006896417551
0.006892593751
0.006888807007
0.006885056931
0.00688134314
0.006877665251
0.00687402289
0.006870415684
0.006866843267
0.006863305273
0.006859801343
0.006856331123
0.006852894259
0.006849490404
0.006846119213
0.006842780348
0.006839473469
0.006836198246
0.006832954348
0.00682974145
0.00682655923
0.006823407368
0.006820285551
0.006817193466
0.006814130806
0.006811097264
0.00680809254
0.006805116336
0.006802168356
0.006799248309
0.006796355906
0.006793490861
0.006790652893
0.006787841722
0.006785057072
0.00678229867
0.006779566245
0.006776859532
0.006774178264
0.006771522182
0.006768891025
0.00676628454
0.006763702473
0.006761144574
0.006758610595
0.006756100292
0.006753613424
0.00675114975
0.006748709035
0.006746291044
0.006743895546
0.006741522313
0.006739171117
0.006736841736
0.006734533948
0.006732247534
0.006729982278
0.006727737966
0.006725514386
0.00672331133
0.00672112859
0.006718965962
0.006716823244
0.006714700236
0.00671259674
0.006710512561
0.006708447506
0.006706401384
0.006704374005
0.006702365185
0.006700374737
0.006698402479
0.006696448232
0.006694511818
0.006692593059
0.006690691782
0.006688807816
0.006686940989
0.006685091134
0.006683258085
0.006681441678
0.00667964175
0.006677858142
0.006676090694
0.006674339251
0.006672603659
0.006670883763
0.006669179414
0.006667490462
0.00666581676
0.006664158162
0.006662514525
0.006660885708
0.006659271569
0.00665767197
0.006656086775
0.006654515848
0.006652959057
0.006651416269
0.006649887354
0.006648372185
0.006646870633
0.006645382575
0.006643907887
0.006642446445
0.006640998132
0.006639562826
0.006638140411
0.006636730772
0.006635333794
0.006633949364
0.00663257737
0.006631217704
0.006629870257
0.006628534921
0.006627211592
0.006625900165
0.006624600537
0.006623312608
0.006622036276
0.006620771445
0.006619518016
0.006618275894
0.006617044983
0.006615825191
0.006614616426
0.006613418597
0.006612231613
0.006611055388
0.006609889833
0.006608734863
0.006607590393
0.006606456339
0.00660533262
0.006604219153
0.006603115858
0.006602022657
0.00660093947
0.006599866221
0.006598802834
0.006597749233
0.006596705345
0.006595671095
0.006594646413
0.006593631225
0.006592625461
0.006591629052
0.006590641929
0.006589664022
0.006588695264
0.006587735589
0.006586784929
0.00658584322
0.006584910394
0.006583986389
0.006583071138
0.006582164579
0.006581266647
0.006580377278
0.00657949641
0.00657862398
0.006577759923
0.006576904177
0.006576056679
0.006575217365
0.006574386171
0.006573563033
0.006572747886
0.006571940666
0.006571141306
0.00657034974
0.0065695659
0.006568789718
0.006568021125
0.006567260049
0.00656650642
0.006565760164
0.006565021207
0.006564289473
0.006563564885
0.006562847364
0.00656213683
0.006561433199
0.006560736383
0.006560046293
0.006559362828
0.006558685881
0.006558015328
0.006557351025
0.006556692792
0.006556040415
0.006550776392
0.006543856957
0.006538413568
0.00653445096
0.006531965375
0.006530954505
0.00653141907
0.006533363392
0.006536795365
0.006541726132
0.006548169654
0.006556142233
0.006565662052
0.006576748732
0.006589422916
0.006603705885
0.006619619193
0.006637184318
0.006656422319
0.006677353505
0.006699997088
0.006724370837
0.006750490711
0.006778370471
0.006808021277
0.00683945125
0.006872665016
0.006907663211
0.006944441982
0.006982992442
0.00702330013
0.007065344445
0.007109098089
0.007154526505
0.007201587343
0.007250229952
0.007300394921
0.007352013675
0.007405008139
0.007459290502
0.007514763089
0.007571318335
0.007628838909
0.007687197977
0.007746259617
0.007805879396
0.007865905117
0.007926177729
0.007986532385
0.00804679967
0.008106806961
0.008166379895
0.00822534397
0.008283526185
0.00834075675
0.008396870813
0.008451710155
0.008505124858
0.00855697487
0.008607131467
0.008655478576
0.0087019139
0.008746349872
0.008788714385
0.008828951285
0.00886702063
0.008902898707
0.008936577802
0.008968065753
0.008997385265
0.00902457304
0.009049678718
0.009072763681
0.009093899714
0.009113167596
0.009130655612
0.009146458048
0.009160673684
0.009173404318
0.009184753346
0.009194824434
0.009203720283
0.009211541515
0.0092183857
0.009224346517
0.009229513067
0.009233969328
0.00923779376
0.009241059048
0.009243831975
0.009246173411
0.009248138412
0.009249776409
0.009251131467
0.009252242612
0.0092531442
0.009253866309
0.009254435152
0.009254873494
0.009255201053
0.009255434886
0.009255589753
0.009255678442
0.009255712065
0.009255700307
0.009255651651
0.009255573552
0.009255472583
0.009255354551
0.009255224579
0.009255087171
0.00925494626
0.009254805233
0.009254666958
0.009254533798
0.009254407632
0.009254289868
0.00925418147
0.009254082979
0.009253994553
0.009253916002
0.009253846839
0.009253786322
0.009253733518
0.00925368735
0.009253646657
0.009253610244
0.009253576936
0.009253545616
0.009253515267
0.009253485001
0.00925345408
0.00925342193
0.009253388144
0.009253352486
0.009253314872
0.009253275365
0.009253234149
0.009253191506
0.009253147796
0.009253103428
0.009253058837
0.009253014459
0.009252970713
0.009252927983
0.009252886606
0.00925284686
0.00925280896
0.009252773058
0.009252739238
0.00925270753
0.009252677906
0.009252650297
0.009252624594
0.009252600665
0.009252578357
0.00925255751
0.009252537963
0.009252519559
0.009252502152
0.009252485609
0.009252469816
0.009252454674
0.009252440103
0.009252426041
0.009252412442
0.009252399275
0.00925238652
0.00925237417
0.009252362226
0.009252350697
0.009252339599
0.009252328951
0.009252318779
0.00925230911
0.009252299976
0.009252291409
0.009252283445
0.009252276119
0.009252269469
0.00925226353
0.009252258336
0.009252253918
0.009252250306
0.00925224752
0.009252245578
0.009252244488
0.009252244251
0.009252244859
0.009252246291
0.00925224852
0.009252251506
0.009252255199
0.009252259542
0.009252264466
0.009252269895
0.009252275746
0.009252281932
0.009252288361
0.009252294938
0.009252301567
0.009252308154
0.009252314603
0.009252320827
0.009252326739
0.00925233226
0.009252337316
0.009252341844
0.009252345786
0.009252349094
0.00925235173
0.009252353665
0.00925235488
0.009252355363
0.009252355115
0.009252354141
0.009252352458
0.009252350089
0.009252347062
0.009252343413
0.009252339183
0.009252334417
0.009252329162
0.009252323469
0.00925231739
0.009252310981
0.009252304294
0.009252297385
0.009252290305
0.009252283109
0.009252275845
0.009252268564
0.009252261311
0.00925225413
0.009252247062
0.009252240144
0.009252233413
0.009252226898
0.009252220627
0.009252214626
0.009252208915
0.009252203511
0.009252198429
0.009252193679
0.009252189269
0.009252185208
0.009252181509
0.009252178206
0.009252175409
0.00925217345
)
;

boundaryField
{
    inlet
    {
        type            fixedValue;
        value           uniform 0;
    }
    outlet
    {
        type            zeroGradient;
    }
    wall
    {
        type            empty;
    }
}


// ************************************************************************* //
