/*--------------------------------*- C++ -*----------------------------------*\
  =========                 |
  \\      /  F ield         | OpenFOAM: The Open Source CFD Toolbox
   \\    /   O peration     | Website:  https://openfoam.org
    \\  /    A nd           | Version:  7
     \\/     M anipulation  |
\*---------------------------------------------------------------------------*/
FoamFile
{
    version     2.0;
    format      ascii;
    class       volScalarField;
    location    "0.000558243009";
    object      ddt0(rho,H);
}
// * * * * * * * * * * * * * * * * * * * * * * * * * * * * * * * * * * * * * //

dimensions      [1 -3 -1 0 0 0 0];

internalField   nonuniform List<scalar> 
1500
(
2.653796624e-26
5.871733225e-27
7.842596659e-27
7.053481525e-27
5.163079905e-27
3.308941532e-27
1.913045387e-27
9.996755582e-28
4.366225234e-28
8.16783581e-29
-1.669266982e-28
-3.66315356e-28
-5.376502e-28
-6.885133098e-28
-8.194114325e-28
-9.28798701e-28
-1.013927154e-27
-1.071228748e-27
-1.102422802e-27
-1.105520837e-27
-1.081772295e-27
-1.03302974e-27
-9.612934849e-28
-8.6894274e-28
-7.576597832e-28
-6.321603613e-28
-4.949380527e-28
-3.496014371e-28
-1.995180596e-28
-4.654617058e-29
1.052768383e-28
2.524983203e-28
3.942370648e-28
5.262365117e-28
6.499666537e-28
7.590152523e-28
8.544247339e-28
9.34637356e-28
9.982966603e-28
1.043658953e-27
1.069923103e-27
1.079342524e-27
1.067031314e-27
1.037018031e-27
9.87763137e-28
9.204707039e-28
8.366087471e-28
7.367464155e-28
6.229055914e-28
4.977296234e-28
3.632530033e-28
2.209162587e-28
7.496850858e-29
-7.310065184e-29
-2.205613827e-28
-3.637694341e-28
-5.018797683e-28
-6.318145543e-28
-7.504791233e-28
-8.60285801e-28
-9.548184214e-28
-1.035264435e-27
-1.100193026e-27
-1.14872095e-27
-1.181479091e-27
-1.197396192e-27
-1.196785212e-27
-1.182171369e-27
-1.151494816e-27
-1.108040204e-27
-1.052120811e-27
-9.844574442e-28
-9.069601346e-28
-8.218050866e-28
-7.293409832e-28
-6.310841621e-28
-5.285264124e-28
-4.232436752e-28
-3.159751894e-28
-2.085453454e-28
-1.026456441e-28
3.400269436e-30
1.065280336e-28
2.075424523e-28
3.055875665e-28
3.996333593e-28
4.904085182e-28
5.771046485e-28
6.58019842e-28
7.342066265e-28
8.044148264e-28
8.696587895e-28
9.272623116e-28
9.795327558e-28
1.022922166e-27
1.059365708e-27
1.086973043e-27
1.106653675e-27
1.117105866e-27
1.11866699e-27
1.109485729e-27
1.091441504e-27
1.063718503e-27
1.025687021e-27
9.789952775e-28
9.243393844e-28
8.589282085e-28
7.880902344e-28
7.06530446e-28
6.212231804e-28
5.2907472e-28
4.317523571e-28
3.299816168e-28
2.254181864e-28
1.184932665e-28
1.064339524e-29
-9.907476033e-29
-2.08391086e-28
-3.151906998e-28
-4.208472714e-28
-5.244253264e-28
-6.240941543e-28
-7.194799887e-28
-8.090661964e-28
-8.931622646e-28
-9.715821531e-28
-1.044188039e-27
-1.10760386e-27
-1.16378251e-27
-1.21202427e-27
-1.251344564e-27
-1.28151046e-27
-1.304377969e-27
-1.317751825e-27
-1.32350705e-27
-1.320025761e-27
-1.307732323e-27
-1.288480639e-27
-1.262799689e-27
-1.229337285e-27
-1.1896032e-27
-1.142836048e-27
-1.092162814e-27
-1.035775394e-27
-9.753213011e-28
-9.112447494e-28
-8.446738997e-28
-7.75006074e-28
-7.042824442e-28
-6.329697423e-28
-5.623211932e-28
-4.919711775e-28
-4.228823981e-28
-3.558002585e-28
-2.914308193e-28
-2.290727855e-28
-1.717123145e-28
-1.168446094e-28
-6.759601374e-29
-2.165309545e-29
2.149839014e-29
5.93171789e-29
9.539357811e-29
1.287569975e-28
1.597731659e-28
1.897157007e-28
2.185741003e-28
2.494221986e-28
2.781906247e-28
3.095882059e-28
3.42835569e-28
3.785702419e-28
4.16972242e-28
4.577896604e-28
5.013341674e-28
5.468380955e-28
5.940174302e-28
6.422947438e-28
6.916668017e-28
7.415087304e-28
7.902241764e-28
8.38324749e-28
8.837040259e-28
9.280926172e-28
9.695410698e-28
1.007424191e-27
1.042865579e-27
1.075499284e-27
1.104710502e-27
1.13244955e-27
1.156261435e-27
1.178738026e-27
1.198382485e-27
1.215933132e-27
1.230456033e-27
1.242096169e-27
1.251114982e-27
1.256955643e-27
1.259114273e-27
1.257944091e-27
1.250734014e-27
1.239008951e-27
1.222971863e-27
1.19975418e-27
1.172068618e-27
1.137141554e-27
1.096423629e-27
1.050461056e-27
9.989228142e-28
9.425344756e-28
8.815020014e-28
8.180930401e-28
7.525867441e-28
6.862651173e-28
6.199920838e-28
5.567752109e-28
4.957236575e-28
4.398608595e-28
3.879621452e-28
3.390862105e-28
2.959570772e-28
2.529849118e-28
2.099622889e-28
1.643903651e-28
1.123242026e-28
5.18124893e-29
-1.94037368e-29
-1.020214705e-28
-1.95884098e-28
-2.99005531e-28
-4.060987152e-28
-5.105070592e-28
-6.017176831e-28
-6.704043832e-28
-7.036695716e-28
-6.928702351e-28
-6.269391912e-28
-5.018274109e-28
-3.17764893e-28
-8.390147989e-29
1.887090996e-28
4.736617231e-28
7.382816646e-28
9.466950935e-28
1.052281633e-27
1.010479311e-27
7.793856949e-28
3.226805994e-28
-3.768513692e-28
-1.319855172e-27
-2.126088191e-27
-2.178174578e-27
-2.222315889e-27
-2.274342713e-27
-2.336283309e-27
-2.406428515e-27
-2.483084148e-27
-2.563878198e-27
-2.647614486e-27
-2.733293614e-27
-2.820464264e-27
-2.909110308e-27
-2.99834266e-27
-3.088731862e-27
-3.17998067e-27
-3.272380389e-27
-3.365743049e-27
-3.460035554e-27
-3.555308302e-27
-3.650949402e-27
-3.747422965e-27
-3.844691929e-27
-3.942641303e-27
-4.041133383e-27
-4.140610454e-27
-4.240636584e-27
-4.341590956e-27
-4.443214729e-27
-4.545411455e-27
-4.648146341e-27
-4.751336024e-27
-4.855157288e-27
-4.9598847e-27
-5.065168689e-27
-5.17114467e-27
-5.277471206e-27
-5.38460818e-27
-5.492662277e-27
-5.600983435e-27
-5.709934087e-27
-5.819511738e-27
-5.929488406e-27
-6.039927965e-27
-6.151007379e-27
-6.263189195e-27
-6.376053e-27
-6.489097604e-27
-6.602331782e-27
-6.716553917e-27
-6.831270749e-27
-6.947028126e-27
-7.063338662e-27
-7.180615303e-27
-7.29824429e-27
-7.416935083e-27
-7.536027375e-27
-7.656422049e-27
-7.777892892e-27
-7.900092388e-27
-8.023210429e-27
-8.147600139e-27
-8.273403621e-27
-8.400468267e-27
-8.528667904e-27
-8.65816116e-27
-8.789221664e-27
-8.921787083e-27
-9.055833322e-27
-9.192033124e-27
-9.330219377e-27
-9.470972563e-27
-9.613888787e-27
-9.758777214e-27
-9.906351117e-27
-1.005710903e-26
-1.021083831e-26
-1.036770791e-26
-1.052806303e-26
-1.069172545e-26
-1.085949752e-26
-1.103140634e-26
-1.120783329e-26
-1.13889019e-26
-1.157503454e-26
-1.176653505e-26
-1.196372825e-26
-1.216689142e-26
-1.237657439e-26
-1.259313698e-26
-1.281712435e-26
-1.304862553e-26
-1.328836395e-26
-1.353654731e-26
-1.37937436e-26
-1.406074216e-26
-1.433769196e-26
-1.462548961e-26
-1.492470433e-26
-1.523589653e-26
-1.555946163e-26
-1.589603355e-26
-1.62466406e-26
-1.661169859e-26
-1.69923629e-26
-1.73888949e-26
-1.780200519e-26
-1.823287009e-26
-1.868173781e-26
-1.915005404e-26
-1.963868588e-26
-2.014801905e-26
-2.067938442e-26
-2.1233727e-26
-2.181203561e-26
-2.241491718e-26
-2.304362626e-26
-2.369866454e-26
-2.438150044e-26
-2.509336819e-26
-2.583486743e-26
-2.660720135e-26
-2.741186034e-26
-2.824969741e-26
-2.912141556e-26
-3.002848685e-26
-3.097224647e-26
-3.195373997e-26
-3.297360253e-26
-3.403293154e-26
-3.513348701e-26
-3.627634283e-26
-3.746215449e-26
-3.869207052e-26
-3.996738769e-26
-4.128904885e-26
-4.265840043e-26
-4.407624073e-26
-4.554385235e-26
-4.706205322e-26
-4.863146408e-26
-5.025261964e-26
-5.192757912e-26
-5.365578517e-26
-5.543844874e-26
-5.727740049e-26
-5.917293928e-26
-6.112501843e-26
-6.313440761e-26
-6.520101166e-26
-6.732656956e-26
-6.951037344e-26
-7.175269346e-26
-7.405444819e-26
-7.641531904e-26
-7.883511307e-26
-8.131446221e-26
-8.385190001e-26
-8.644852278e-26
-8.910292597e-26
-9.181540788e-26
-9.458598098e-26
-9.741251311e-26
-1.002944978e-25
-1.032312938e-25
-1.062213421e-25
-1.092646587e-25
-1.123591814e-25
-1.15504144e-25
-1.186973424e-25
-1.219367273e-25
-1.252234384e-25
-1.285514868e-25
-1.319200445e-25
-1.353275386e-25
-1.387718752e-25
-1.422517694e-25
-1.457630156e-25
-1.493026262e-25
-1.528682068e-25
-1.564580431e-25
-1.600682173e-25
-1.636958698e-25
-1.673376415e-25
-1.709916105e-25
-1.746524616e-25
-1.78317434e-25
-1.819839259e-25
-1.856477215e-25
-1.893058752e-25
-1.929523253e-25
-1.965862403e-25
-2.001999158e-25
-2.03796686e-25
-2.073665271e-25
-2.109074976e-25
-2.144141539e-25
-2.17887015e-25
-2.213188593e-25
-2.247061836e-25
-2.280466211e-25
-2.313382788e-25
-2.345756526e-25
-2.377516966e-25
-2.408668993e-25
-2.43917782e-25
-2.469055284e-25
-2.4981879e-25
-2.5265916e-25
-2.554245359e-25
-2.581214507e-25
-2.607350635e-25
-2.632633501e-25
-2.657141863e-25
-2.680727095e-25
-2.703504991e-25
-2.725479192e-25
-2.746584464e-25
-2.766871152e-25
-2.786359474e-25
-2.804971061e-25
-2.822783741e-25
-2.839790526e-25
-2.855968609e-25
-2.871441953e-25
-2.886220403e-25
-2.900356216e-25
-2.913896559e-25
-2.926845544e-25
-2.939265712e-25
-2.951281299e-25
-2.963167533e-25
-2.974669641e-25
-2.98599688e-25
-2.997183678e-25
-3.00835085e-25
-3.019596672e-25
-3.03117102e-25
-3.043044783e-25
-3.055510369e-25
-3.068735696e-25
-3.082666438e-25
-3.097645087e-25
-3.113885164e-25
-3.13145374e-25
-3.150670362e-25
-3.171805943e-25
-3.195092021e-25
-3.220482611e-25
-3.24833417e-25
-3.279420377e-25
-3.313695758e-25
-3.351314641e-25
-3.393259075e-25
-3.439423116e-25
-3.490366912e-25
-3.546987679e-25
-3.61072363e-25
-3.683232234e-25
-3.767622129e-25
-3.868790863e-25
-3.993852586e-25
-4.152783776e-25
-4.356349531e-25
-4.602131432e-25
-4.915930647e-25
-5.331141774e-25
-5.866649315e-25
-6.42440613e-25
-6.956204884e-25
-7.435319274e-25
-7.845266858e-25
-8.174733188e-25
-8.416013884e-25
-8.562790655e-25
-8.613770055e-25
-8.575761036e-25
-8.475029329e-25
-8.381589181e-25
-8.438203371e-25
-8.570134693e-25
-8.757890926e-25
-9.004965623e-25
-9.309667504e-25
-9.677468805e-25
-1.011774891e-24
-1.062297551e-24
-1.118711872e-24
-1.180551204e-24
-1.247584433e-24
-1.319974932e-24
-1.397753694e-24
-1.481362479e-24
-1.571310917e-24
-1.667924391e-24
-1.771726228e-24
-1.883372204e-24
-2.003432887e-24
-2.132626931e-24
-2.272082205e-24
-2.422548771e-24
-2.585271172e-24
-2.761006904e-24
-2.951229137e-24
-3.157736712e-24
-3.382011554e-24
-3.626489435e-24
-3.893344356e-24
-4.185186984e-24
-4.50513213e-24
-4.857311807e-24
-5.245614371e-24
-5.67565431e-24
-6.153403263e-24
-6.686382324e-24
-7.283368955e-24
-7.954461595e-24
-8.712384835e-24
-9.571857854e-24
-1.055155377e-23
-1.167381702e-23
-1.29664346e-23
-1.446267191e-23
-1.620298977e-23
-1.823829556e-23
-2.063195879e-23
-2.346002633e-23
-2.682096066e-23
-3.083742481e-23
-3.56614216e-23
-4.148594606e-23
-4.855792369e-23
-5.71905069e-23
-6.778232824e-23
-8.085068105e-23
-9.706362951e-23
-1.172855351e-22
-1.426481026e-22
-1.746385324e-22
-2.152109367e-22
-2.669568506e-22
-3.333228407e-22
-4.189250577e-22
-5.299597032e-22
-6.747707546e-22
-8.646378016e-22
-1.114901866e-21
-1.446485615e-21
-1.88796043e-21
-2.478511515e-21
-3.271979156e-21
-4.342643642e-21
-5.793095682e-21
-7.765421696e-21
-1.045672336e-20
-1.414105261e-20
-1.920026084e-20
-2.616716345e-20
-3.578741117e-20
-4.910636022e-20
-6.759373173e-20
-9.332251315e-20
-1.292274795e-19
-1.794824318e-19
-2.500562935e-19
-3.495427703e-19
-4.904100066e-19
-6.909166324e-19
-9.780758051e-19
-1.392298357e-18
-1.994752922e-18
-2.87910871e-18
-4.190346558e-18
-6.154945565e-18
-9.129128258e-18
-1.367526852e-17
-2.06810269e-17
-3.154057755e-17
-4.841983615e-17
-7.462077523e-17
-1.150268233e-16
-1.765132838e-16
-2.6796094e-16
-3.989461149e-16
-5.749475557e-16
-7.843235661e-16
-9.670368652e-16
-9.44602005e-16
-2.70257336e-16
2.080814191e-15
8.335018771e-15
2.314744265e-14
5.596905972e-14
1.255299835e-13
2.681812396e-13
5.531474829e-13
1.109941073e-12
2.176744938e-12
4.183632265e-12
7.890949301e-12
1.461114069e-11
2.654831329e-11
4.728162333e-11
8.236881116e-11
1.398922989e-10
2.30373549e-10
3.645498787e-10
5.454461555e-10
7.467987366e-10
8.60900393e-10
5.80964039e-10
-8.519995708e-10
-5.174905306e-09
-1.616378638e-08
-4.172446818e-08
-9.792340455e-08
-2.166062481e-07
-4.59529297e-07
-9.440982444e-07
-1.889414917e-06
-3.69719026e-06
-7.091369532e-06
-1.33546646e-05
-2.472250486e-05
-4.502467824e-05
-8.07112786e-05
-0.0001424584361
-0.0002476282886
-0.0004239587534
-0.000714969106
-0.001187697791
-0.001943515533
-0.003132867864
-0.004974873294
-0.007782710165
-0.01199563869
-0.01821829943
-0.02726758586
-0.0402268961
-0.0585069295
-0.08391141757
-0.1187052923
-0.1656818216
-0.2282242202
-0.3103562092
-0.4167749993
-0.5528592074
-0.7246444058
-0.9387503376
-1.202300666
-1.522650004
-1.907374015
-2.363497637
-2.896755883
-3.509663722
-4.208993135
-4.998725141
-5.879381702
-6.849565937
-7.902232199
-9.037192286
-10.24204895
-11.50095757
-12.79240461
-14.08124598
-15.31704674
-16.46803115
-17.47199692
-18.27364437
-18.8179648
-19.07747234
-19.00141927
-18.55055742
-17.67196228
-16.3597648
-14.60316519
-12.42202343
-9.862143268
-6.994019905
-3.909390882
-0.7167794716
2.451753795
5.511654052
8.429163609
11.124105
13.54671995
15.66722236
17.47054356
18.94693444
20.08706098
20.88486474
21.3606405
21.53869482
21.46549236
21.15355698
20.63524805
19.92825211
19.01359041
18.01767539
16.9428796
15.79262435
14.61958684
13.4408928
12.27034229
11.1197213
9.999001022
8.917468395
7.879626063
6.891487785
5.956505719
5.076818671
4.253504613
3.486746336
2.775993558
2.120107895
1.517489693
0.966184737
0.4639849369
0.008499894987
-0.4027772092
-0.7724156038
-1.103003549
-1.397111048
-1.657265014
-1.885925342
-2.085468431
-2.258175491
-2.406223384
-2.531678969
-2.63649587
-2.722513225
-2.791456027
-2.844936772
-2.884458116
-2.911416312
-2.927105226
-2.932720781
-2.929365661
-2.918054216
-2.899717416
-2.875207826
-2.84530452
-2.810717889
-2.77209432
-2.730020695
-2.68502872
-2.63759904
-2.588165154
-2.537117115
-2.484805015
-2.431542262
-2.377608642
-2.323253186
-2.268696832
-2.21413491
-2.159739438
-2.105661248
-2.052031956
-1.99896577
-1.946561165
-1.894902411
-1.844060988
-1.794096868
-1.745059704
-1.696989899
-1.649919603
-1.603873599
-1.558870125
-1.514921614
-1.472035369
-1.430214172
-1.389456836
-1.349758706
-1.31111211
-1.27350676
-1.236930125
-1.201367756
-1.166803576
-1.133220152
-1.100598925
-1.068920423
-1.038164446
-1.008310233
-0.9793366096
-0.9512221177
-0.9239451296
-0.8974839492
-0.8718168991
-0.8469223987
-0.8227790279
-0.799365587
-0.7766611434
-0.754644893
-0.7332969193
-0.7125971065
-0.6925260134
-0.673064514
-0.6541939554
-0.6358961226
-0.6181532571
-0.6009480552
-0.5842636773
-0.5680837438
-0.5523923361
-0.5371739932
-0.5224137094
-0.5080969261
-0.4942095283
-0.4807378362
-0.4676685978
-0.4549889783
-0.442686555
-0.4307493048
-0.4191655952
-0.4079241758
-0.3970141666
-0.3864250482
-0.3761466528
-0.3661691529
-0.3564830512
-0.3470791721
-0.3379486486
-0.3290829166
-0.3204737021
-0.312113013
-0.3039931303
-0.2961065981
-0.2884462151
-0.2810050254
-0.2737763123
-0.2667535876
-0.2599305839
-0.2533012485
-0.2468597348
-0.2406003947
-0.2345177725
-0.2286065978
-0.2228617781
-0.2172783929
-0.2118516888
-0.2065770713
-0.2014501004
-0.1964664853
-0.1916220775
-0.1869128677
-0.1823349791
-0.1778846638
-0.1735582967
-0.1693523726
-0.1652635016
-0.1612884032
-0.1574239054
-0.1536669381
-0.1500145303
-0.146463807
-0.1430119858
-0.1396563723
-0.1363943583
-0.1332234188
-0.1301411077
-0.1271450558
-0.1242329691
-0.1214026234
-0.1186518652
-0.1159786063
-0.1133808234
-0.110856555
-0.1084038989
-0.1060210113
-0.1037061039
-0.1014574421
-0.09927334231
-0.09715217298
-0.09509234902
-0.09309233307
-0.0911506327
-0.08926579854
-0.08743642437
-0.08566114346
-0.08393862924
-0.0822675923
-0.08064678069
-0.07907497745
-0.07755099972
-0.07607369865
-0.07464195639
-0.07325468631
-0.0719108324
-0.07060936667
-0.0693492901
-0.0681296298
-0.06694943987
-0.06580779937
-0.06470381187
-0.06363660515
-0.06260532992
-0.06160915849
-0.06064728538
-0.05971892616
-0.05882331587
-0.05795970981
-0.05712738176
-0.05632562435
-0.0555537478
-0.05481107927
-0.0540969632
-0.05341075986
-0.0527518458
-0.05211961153
-0.05151346362
-0.05093282254
-0.05037712207
-0.04984581047
-0.04933834843
-0.04885420924
-0.04839287875
-0.04795385458
-0.04753664635
-0.04714077389
-0.04676576901
-0.04641117373
-0.04607654011
-0.04576143025
-0.04546541597
-0.0451880792
-0.04492900954
-0.04468780662
-0.0444640784
-0.04425744105
-0.04406751884
-0.04389394409
-0.043736357
-0.04359440479
-0.04346774246
-0.04335603103
-0.04325893979
-0.04317614369
-0.04310732412
-0.04305216972
-0.04301037424
-0.04298163774
-0.04296566607
-0.04296217106
-0.04297086941
-0.04299148355
-0.04302374095
-0.0430673742
-0.04312212078
-0.04318772285
-0.04326392752
-0.04335048604
-0.0434471544
-0.04355369264
-0.04366986529
-0.04379544042
-0.04393019075
-0.04407389203
-0.04422632462
-0.04438727211
-0.04455652172
-0.0447338639
-0.04491909327
-0.04511200641
-0.04531240462
-0.04552009132
-0.04573487314
-0.04595656017
-0.04618496494
-0.04641990281
-0.04666119206
-0.04690865384
-0.04716211147
-0.04742139116
-0.04768632162
-0.04795673376
-0.04823246128
-0.04851333931
-0.04879920653
-0.04908990294
-0.04938527081
-0.04968515462
-0.04998940107
-0.05029785857
-0.05061037788
-0.05092681107
-0.05124701254
-0.05157083854
-0.05189814723
-0.0522287972
-0.05256265114
-0.05289957115
-0.0532394224
-0.05358207095
-0.05392738463
-0.0542752327
-0.0546254863
-0.0549780174
-0.05533270004
-0.05568940909
-0.05604802138
-0.05640841463
-0.05677046787
-0.05713406183
-0.05749907828
-0.05786540011
-0.05823291154
-0.05860149836
-0.05897104638
-0.05934144431
-0.05971258048
-0.06008434495
-0.06045670315
-0.06082939722
-0.0612023963
-0.06157559451
-0.06194890246
-0.06232218841
-0.0626953659
-0.06306833189
-0.06344098659
-0.06381323022
-0.06418496403
-0.06455608999
-0.06492651178
-0.06529613322
-0.06566485963
-0.06603259687
-0.06639925189
-0.0667647323
-0.06712894714
-0.06749180582
-0.06785321912
-0.06821309795
-0.06857135481
-0.06892790281
-0.06928265599
-0.06963552898
-0.06998643766
-0.07033529834
-0.0706820288
-0.07102654697
-0.07136877193
-0.07170862376
-0.07204602328
-0.07238089194
-0.0727131525
-0.07304272803
-0.0733695431
-0.07369352225
-0.07401459192
-0.07433267842
-0.07464770979
-0.07495961424
-0.07526832119
-0.0755737611
-0.07587586489
-0.0761745645
-0.07646979331
-0.07676148452
-0.07704957324
-0.07733399495
-0.07761468623
-0.07789158459
-0.0781646284
-0.07843375691
-0.07869891053
-0.07896003053
-0.07921705891
-0.07946993919
-0.07971861495
-0.07996303186
-0.08020313614
-0.08043887485
-0.08067019582
-0.08089704868
-0.0811193836
-0.08133715199
-0.08155030603
-0.08175879957
-0.08196258677
-0.0821616233
-0.0823558665
-0.08254527345
-0.08272980385
-0.08290941744
-0.083084076
-0.0832537418
-0.08341837831
-0.0835779508
-0.08373242544
-0.0838817692
-0.08402595086
-0.08416494035
-0.08429870876
-0.08442722822
-0.08455047263
-0.08466841689
-0.08478103721
-0.08488831133
-0.08499021827
-0.08508673805
-0.08517785271
-0.08526354516
-0.08534379986
-0.08541860289
-0.08548794109
-0.08555180381
-0.08561018089
-0.08566306397
-0.08571044651
-0.08575232277
-0.08578868924
-0.08581954321
-0.08584488429
-0.08586471274
-0.08587903121
-0.08588784353
-0.08589115512
-0.08588897283
-0.08588130546
-0.08586816341
-0.08584955825
-0.08582550386
-0.08579601551
-0.08576110979
-0.08572080516
-0.08567512258
-0.08562408339
-0.08556771164
-0.08550603253
-0.08543907392
-0.08536686405
-0.08528943406
-0.08520681683
-0.08511904636
-0.08502615936
-0.08492819332
-0.0848251891
-0.08471718796
-0.08460423396
-0.08448637302
-0.08436365277
-0.08423612297
-0.08410383528
-0.0839668436
-0.083825204
-0.08367897419
-0.08352821453
-0.08337298705
-0.08321335656
-0.08304938965
-0.08288115547
-0.08270872544
-0.08253217323
-0.08235157527
-0.08216700983
-0.08197855891
-0.08178630561
-0.08159033709
-0.08139074171
-0.08118761223
-0.08098104302
-0.08077113181
-0.08055797939
-0.08034168951
-0.08012236848
-0.07990012676
-0.07967507687
-0.07944733577
-0.0792170224
-0.07898426037
-0.07874917536
-0.07851189753
-0.07827249021
-0.07803122708
-0.07778817924
-0.07754348909
-0.0772973009
-0.07704976171
-0.07680100428
-0.07655120178
-0.07630048438
-0.0760489924
-0.07579685567
-0.07554419146
-0.07529109348
-0.07503762256
-0.07478380232
-0.07452957443
-0.07427483833
-0.07401928183
-0.07376272453
-0.07350392533
-0.07324452927
-0.07297603369
-0.07271370563
-0.07243119263
-0.07214397899
-0.07185623632
-0.07155799298
-0.07115279044
-0.06628786286
-0.04989075206
-0.03521378758
-0.02168168
-0.00923001341
0.002130099874
0.01238696316
0.02153125897
0.02956192249
0.03648730743
0.04232464369
0.04709969316
0.05084614738
0.05360497728
0.05542373418
0.05635581821
0.05645972202
0.05579825955
0.05443778744
0.05244742475
0.04989827753
0.04686267336
0.04341341066
0.03962302984
0.03556310849
0.03130358901
0.0269121413
0.02245356743
0.01798925081
0.01357665836
0.009268895685
0.005114323221
0.001156234542
-0.00256739889
-0.006024114795
-0.009187076787
-0.01203512064
-0.01455272869
-0.01672993404
-0.01856215692
-0.02004997483
-0.02119883059
-0.02201868323
-0.0225236072
-0.02273134654
-0.02266283131
-0.02234166484
-0.02179359023
-0.0210459457
-0.02012711835
-0.01906600593
-0.0178914963
-0.01663197351
-0.01531485918
-0.01396619707
-0.01261028657
-0.01126937167
-0.009963388199
-0.008709772536
-0.007523332678
-0.006416180548
-0.00539772434
-0.004474717205
-0.003651357345
-0.002929434582
-0.002308516786
-0.001786168966
-0.001358197844
-0.001018914455
-0.000761406892
-0.0005778167683
-0.0004596117955
-0.0003978489058
-0.0003834221929
-0.000407291281
-0.0004606861634
-0.0005352857837
-0.0006233685483
-0.0007179333924
-0.0008127915358
-0.0009026291546
-0.000983042316
-0.001050545814
-0.001102558244
-0.001137365808
-0.001154067787
-0.001152506701
-0.001133186352
-0.001097180847
-0.00104603778
-0.000981678541
-0.0009062985448
-0.0008222700346
-0.00073204971
-0.000638093238
-0.0005427783654
-0.0004483379427
-0.0003568038272
-0.0002699623474
-0.0001893214874
-0.0001160898009
-5.116657368e-05
4.857454673e-06
5.168976964e-05
8.931734977e-05
0.0001179808439
0.0001381431348
0.0001504537611
0.0001557107797
0.0001548214684
0.0001487633279
0.0001385465896
0.0001251793954
0.0001096365211
9.283237521e-05
7.559881872e-05
5.866805002e-05
4.266067427e-05
2.807886735e-05
1.530433402e-05
4.600650024e-06
-3.880568763e-06
-1.009026031e-05
-1.407002896e-05
-1.593844957e-05
-1.587628968e-05
-1.411133427e-05
-1.090339907e-05
-6.53017198e-06
-1.27422025e-06
4.588406752e-06
1.079773699e-05
1.711748488e-05
2.334062151e-05
2.929300276e-05
3.48351247e-05
3.986221724e-05
4.430291666e-05
4.811676238e-05
5.129079476e-05
5.38355314e-05
5.578062619e-05
5.717036952e-05
5.805931855e-05
5.850821817e-05
5.858027931e-05
5.833803324e-05
5.784067492e-05
5.714206813e-05
5.628925875e-05
5.532159141e-05
5.427027928e-05
5.31584298e-05
5.200142679e-05
5.080758055e-05
4.957900066e-05
4.831262073e-05
4.70012789e-05
4.563483275e-05
4.420126591e-05
4.268771937e-05
4.108144324e-05
3.937066285e-05
3.754528982e-05
3.559754469e-05
3.352242441e-05
3.13180434e-05
2.898585843e-05
2.653076079e-05
2.396105956e-05
2.128835066e-05
1.852731497e-05
1.569540544e-05
1.281249112e-05
9.900432308e-06
6.982633104e-06
4.083559018e-06
1.22825648e-06
-1.55812449e-06
-4.25077002e-06
-6.825639538e-06
-9.259830522e-06
-1.153191617e-05
-1.362222657e-05
-1.551308271e-05
-1.718897937e-05
-1.863673376e-05
-1.984559117e-05
-2.080730576e-05
-2.151619453e-05
-2.196919186e-05
-2.216587629e-05
-2.210849434e-05
-2.18019991e-05
-2.125405297e-05
-2.04750428e-05
-1.94780669e-05
-1.827890896e-05
-1.689597123e-05
-1.535017411e-05
-1.366481649e-05
-1.186535909e-05
-9.979174513e-06
-8.035226801e-06
-6.063688144e-06
-4.095507618e-06
-2.161925956e-06
-2.939577007e-07
1.4781541e-06
3.125493022e-06
4.621018528e-06
5.940093697e-06
7.060969871e-06
7.965223063e-06
8.638115538e-06
9.068877557e-06
9.250903797e-06
9.181848703e-06
8.863627268e-06
8.302312808e-06
7.507946516e-06
6.494248377e-06
5.278262479e-06
3.879926467e-06
2.321588387e-06
6.274977392e-07
-1.176738394e-06
-3.064692844e-06
-5.009631179e-06
-6.985008368e-06
-8.96490057e-06
-1.092438318e-05
-1.283983778e-05
-1.468918847e-05
-1.64520705e-05
-1.810993567e-05
-1.964612732e-05
-2.10459013e-05
-2.229643827e-05
-2.338681403e-05
-2.430791119e-05
-2.50522352e-05
-2.561357286e-05
-2.598643977e-05
-2.6165295e-05
-2.614347954e-05
-2.591189567e-05
-2.545637337e-05
-2.475463898e-05
-2.368373276e-05
)
;

boundaryField
{
    inlet
    {
        type            calculated;
        value           uniform 0;
    }
    outlet
    {
        type            calculated;
        value           uniform -2.020794717e-05;
    }
    wall
    {
        type            empty;
    }
}


// ************************************************************************* //
