/*--------------------------------*- C++ -*----------------------------------*\
  =========                 |
  \\      /  F ield         | OpenFOAM: The Open Source CFD Toolbox
   \\    /   O peration     | Website:  https://openfoam.org
    \\  /    A nd           | Version:  7
     \\/     M anipulation  |
\*---------------------------------------------------------------------------*/
FoamFile
{
    version     2.0;
    format      ascii;
    class       volScalarField;
    location    "0.000558243009";
    object      ddt0(rho,CH2CO);
}
// * * * * * * * * * * * * * * * * * * * * * * * * * * * * * * * * * * * * * //

dimensions      [1 -3 -1 0 0 0 0];

internalField   nonuniform List<scalar> 
1500
(
-3.120617852e-09
-9.597762414e-09
-1.467474967e-08
-1.51094919e-08
-1.178215259e-08
-7.414342864e-09
-3.918084073e-09
-1.788413438e-09
-7.236403731e-10
-2.725016824e-10
-1.104588536e-10
-6.50639303e-11
-6.036666238e-11
-6.755627476e-11
-7.675423819e-11
-8.487149326e-11
-9.098587592e-11
-9.483284968e-11
-9.636006604e-11
-9.559954628e-11
-9.263286481e-11
-8.75800529e-11
-8.059384973e-11
-7.185505962e-11
-6.156809869e-11
-4.9956738e-11
-3.726022733e-11
-2.372995276e-11
-9.626650404e-12
4.781945183e-12
1.922326185e-11
3.342218383e-11
4.710381055e-11
5.999696887e-11
7.183862987e-11
8.237926246e-11
9.138900594e-11
9.866431144e-11
1.040347085e-10
1.07369181e-10
1.085816382e-10
1.076350062e-10
1.045435566e-10
9.937322132e-11
9.223980527e-11
8.330517775e-11
7.277167326e-11
6.087506712e-11
4.78765706e-11
3.405432654e-11
1.969488531e-11
5.085072101e-12
-9.495416756e-12
-2.378045601e-11
-3.752284418e-11
-5.049854125e-11
-6.250983325e-11
-7.338752377e-11
-8.299227445e-11
-9.121521651e-11
-9.79779347e-11
-1.032318947e-10
-1.069573616e-10
-1.091618159e-10
-1.098778793e-10
-1.091607455e-10
-1.070851465e-10
-1.037419078e-10
-9.923419311e-11
-9.367357778e-11
-8.71761286e-11
-7.985868743e-11
-7.183555897e-11
-6.321578734e-11
-5.410117039e-11
-4.458509645e-11
-3.475223613e-11
-2.467904097e-11
-1.443494164e-11
-4.084087053e-12
6.312578086e-12
1.669510911e-11
2.700244515e-11
3.717057629e-11
4.713114683e-11
5.681061096e-11
6.61300016e-11
7.500532982e-11
8.334858357e-11
9.106925651e-11
9.807630855e-11
1.042804398e-10
1.095965474e-10
1.139462282e-10
1.172602015e-10
1.1948052e-10
1.205624702e-10
1.204760646e-10
1.192070659e-10
1.167574988e-10
1.131456403e-10
1.084055097e-10
1.025859032e-10
9.574904857e-11
8.796897359e-11
7.932969303e-11
6.992332584e-11
5.984824489e-11
4.920734535e-11
3.810650052e-11
2.665324015e-11
1.495565674e-11
3.121523785e-12
-8.742425701e-12
-2.053111401e-11
-3.214169822e-11
-4.347417461e-11
-5.44320606e-11
-6.492318411e-11
-7.486058638e-11
-8.416352037e-11
-9.275850016e-11
-1.005803483e-10
-1.075731698e-10
-1.136911838e-10
-1.188993529e-10
-1.231737675e-10
-1.265017585e-10
-1.288817407e-10
-1.303228098e-10
-1.308441347e-10
-1.304742047e-10
-1.292499925e-10
-1.272160976e-10
-1.244239179e-10
-1.209308907e-10
-1.167998099e-10
-1.120982188e-10
-1.068978385e-10
-1.012739896e-10
-9.530494052e-11
-8.907111559e-11
-8.265410667e-11
-7.613543121e-11
-6.959502382e-11
-6.310945834e-11
-5.674994318e-11
-5.058016224e-11
-4.465407157e-11
-3.901378042e-11
-3.368766998e-11
-2.868890553e-11
-2.401449627e-11
-1.964502276e-11
-1.554514076e-11
-1.166489641e-11
-7.941870327e-12
-4.304069506e-12
-6.734711577e-13
3.029971094e-12
6.884058671e-12
1.096007553e-11
1.531876849e-11
2.000684302e-11
2.505420785e-11
3.047217523e-11
3.625274072e-11
4.236901818e-11
4.877680895e-11
5.541720472e-11
6.222004342e-11
6.910796389e-11
7.600074998e-11
8.28196383e-11
8.949124751e-11
9.595081587e-11
1.021445088e-10
1.080306162e-10
1.135795784e-10
1.18772877e-10
1.236009463e-10
1.280603452e-10
1.321505034e-10
1.358703991e-10
1.392155186e-10
1.421754193e-10
1.447321533e-10
1.468596921e-10
1.485244241e-10
1.496866542e-10
1.503029637e-10
1.503292083e-10
1.497238904e-10
1.48451636e-10
1.46486524e-10
1.438150412e-10
1.40438494e-10
1.363747466e-10
1.316591881e-10
1.263448264e-10
1.205014597e-10
1.142138063e-10
1.075785304e-10
1.007001145e-10
9.36855731e-11
8.663817398e-11
7.965043415e-11
7.279692775e-11
6.612761082e-11
5.966258593e-11
5.33893397e-11
4.726347283e-11
4.121375927e-11
3.515202875e-11
2.89877745e-11
2.264666234e-11
1.609132006e-11
9.341954912e-12
2.493642692e-12
-4.273238819e-12
-1.069300071e-11
-1.642810146e-11
-2.109806066e-11
-2.432416133e-11
-2.578817295e-11
-2.530092773e-11
-2.287412227e-11
-1.878653052e-11
-1.363425945e-11
-8.354051908e-12
-4.209287156e-12
-2.730375453e-12
-5.60486338e-12
-1.451744849e-11
-3.094619283e-11
-5.592783881e-11
-8.981172047e-11
-1.320276304e-10
-1.80897293e-10
-2.335213082e-10
-2.857731876e-10
-3.324303977e-10
-3.674700652e-10
-3.845605657e-10
-3.777782086e-10
-3.425953873e-10
-2.77039192e-10
-1.828550343e-10
-6.493333575e-11
7.282711892e-11
1.591038434e-10
1.702211354e-10
1.793557347e-10
1.880368995e-10
1.966049034e-10
2.051187788e-10
2.135559784e-10
2.218840336e-10
2.300703865e-10
2.380908914e-10
2.459276801e-10
2.535657104e-10
2.609916437e-10
2.681908002e-10
2.751478684e-10
2.818468802e-10
2.882701912e-10
2.943994105e-10
3.002152018e-10
3.056976359e-10
3.108256263e-10
3.155766211e-10
3.19927816e-10
3.238548001e-10
3.273327493e-10
3.303340466e-10
3.328313527e-10
3.347949422e-10
3.361946087e-10
3.369972622e-10
3.371695021e-10
3.366751775e-10
3.354769368e-10
3.335354626e-10
3.308086586e-10
3.272531867e-10
3.228231411e-10
3.174697089e-10
3.111421307e-10
3.037868486e-10
2.953471833e-10
2.857635497e-10
2.749730713e-10
2.629100505e-10
2.495045286e-10
2.346830278e-10
2.183686201e-10
2.00479655e-10
1.809300531e-10
1.596297634e-10
1.364831952e-10
1.113901564e-10
8.424453026e-11
5.493528882e-11
2.334499118e-11
-1.064997202e-11
-4.717982454e-11
-8.638159942e-11
-1.283993259e-10
-1.733846422e-10
-2.214975944e-10
-2.729056949e-10
-3.277859491e-10
-3.863237036e-10
-4.487144526e-10
-5.151627607e-10
-5.858843606e-10
-6.611054891e-10
-7.41063246e-10
-8.260072693e-10
-9.161986611e-10
-1.011911574e-09
-1.113433015e-09
-1.221064629e-09
-1.335121094e-09
-1.45593322e-09
-1.583845926e-09
-1.719220913e-09
-1.862435844e-09
-2.013885915e-09
-2.173983609e-09
-2.343159664e-09
-2.521864179e-09
-2.71056529e-09
-2.909752917e-09
-3.119936046e-09
-3.341646018e-09
-3.575435262e-09
-3.821878374e-09
-4.081573622e-09
-4.355142407e-09
-4.643230095e-09
-4.946507054e-09
-5.265668533e-09
-5.601435582e-09
-5.954555805e-09
-6.325802837e-09
-6.715978139e-09
-7.125910478e-09
-7.556456863e-09
-8.008502798e-09
-8.482962086e-09
-8.980778731e-09
-9.502924859e-09
-1.005040348e-08
-1.06242471e-08
-1.122551769e-08
-1.185530832e-08
-1.251474205e-08
-1.320497207e-08
-1.392718209e-08
-1.468258602e-08
-1.547242736e-08
-1.629798009e-08
-1.716054727e-08
-1.80614616e-08
-1.900208378e-08
-1.99838044e-08
-2.100804012e-08
-2.207623577e-08
-2.318986222e-08
-2.43504163e-08
-2.555941948e-08
-2.681841697e-08
-2.81289774e-08
-2.949268996e-08
-3.091116575e-08
-3.23860339e-08
-3.391894244e-08
-3.551155506e-08
-3.716555054e-08
-3.888262116e-08
-4.066447046e-08
-4.25128125e-08
-4.442936826e-08
-4.641586477e-08
-4.8474034e-08
-5.060560875e-08
-5.281232187e-08
-5.509590436e-08
-5.7458081e-08
-5.990057031e-08
-6.242508065e-08
-6.503330921e-08
-6.772693722e-08
-7.050763007e-08
-7.337703189e-08
-7.633676558e-08
-7.938842889e-08
-8.253359114e-08
-8.57737919e-08
-8.911053683e-08
-9.254529704e-08
-9.607950391e-08
-9.971454877e-08
-1.034517784e-07
-1.072924936e-07
-1.11237947e-07
-1.152893387e-07
-1.194478161e-07
-1.237144704e-07
-1.28090334e-07
-1.325763803e-07
-1.371735185e-07
-1.418825945e-07
-1.467043892e-07
-1.516396134e-07
-1.566889108e-07
-1.618528535e-07
-1.671319426e-07
-1.72526607e-07
-1.780372008e-07
-1.836640062e-07
-1.894072307e-07
-1.952670069e-07
-2.012433941e-07
-2.073363786e-07
-2.135458729e-07
-2.198717179e-07
-2.263136855e-07
-2.328714762e-07
-2.395447253e-07
-2.463330033e-07
-2.53235818e-07
-2.602526174e-07
-2.673827954e-07
-2.746256914e-07
-2.819805986e-07
-2.894467646e-07
-2.970233989e-07
-3.047096779e-07
-3.125047481e-07
-3.204077356e-07
-3.284177492e-07
-3.365338907e-07
-3.447552604e-07
-3.530809642e-07
-3.615101235e-07
-3.700418842e-07
-3.786754242e-07
-3.874099641e-07
-3.962447786e-07
-4.051792037e-07
-4.142126552e-07
-4.233446299e-07
-4.32574727e-07
-4.419026583e-07
-4.513282584e-07
-4.608515022e-07
-4.704725196e-07
-4.801916051e-07
-4.900092432e-07
-4.999261118e-07
-5.099431115e-07
-5.200613726e-07
-5.302822778e-07
-5.406074835e-07
-5.510389313e-07
-5.615788726e-07
-5.722298863e-07
-5.829949027e-07
-5.938772226e-07
-6.048805372e-07
-6.160089545e-07
-6.272670206e-07
-6.386597437e-07
-6.501926165e-07
-6.618716455e-07
-6.737033746e-07
-6.85694906e-07
-6.978539373e-07
-7.101887842e-07
-7.227084048e-07
-7.354224366e-07
-7.483412171e-07
-7.614758228e-07
-7.748380943e-07
-7.88440671e-07
-8.022970241e-07
-8.164214868e-07
-8.308292888e-07
-8.45536595e-07
-8.605605385e-07
-8.759192545e-07
-8.916319209e-07
-9.077187995e-07
-9.242012657e-07
-9.411018524e-07
-9.584443022e-07
-9.762535861e-07
-9.945559664e-07
-1.013379037e-06
-1.032751758e-06
-1.052704511e-06
-1.07326915e-06
-1.094479042e-06
-1.116369111e-06
-1.138975904e-06
-1.162337612e-06
-1.186494112e-06
-1.211486965e-06
-1.237358952e-06
-1.264160688e-06
-1.291772649e-06
-1.320423105e-06
-1.350287976e-06
-1.381631961e-06
-1.414070205e-06
-1.447653443e-06
-1.48244176e-06
-1.518497602e-06
-1.555886559e-06
-1.594677262e-06
-1.634941592e-06
-1.676754816e-06
-1.720195773e-06
-1.765345923e-06
-1.812335637e-06
-1.861950358e-06
-1.913637807e-06
-1.967480826e-06
-2.023582964e-06
-2.081870312e-06
-2.142478942e-06
-2.205641929e-06
-2.271471852e-06
-2.340082757e-06
-2.411594349e-06
-2.486131188e-06
-2.563822633e-06
-2.644803038e-06
-2.729211929e-06
-2.817194214e-06
-2.908900503e-06
-3.004487301e-06
-3.104117366e-06
-3.207960032e-06
-3.316191533e-06
-3.428995416e-06
-3.546562991e-06
-3.669093771e-06
-3.796796063e-06
-3.92988752e-06
-4.068595892e-06
-4.213159736e-06
-4.363829361e-06
-4.520867808e-06
-4.684552022e-06
-4.855174222e-06
-5.033043416e-06
-5.218487259e-06
-5.41185412e-06
-5.613515572e-06
-5.823869238e-06
-6.043342236e-06
-6.272395087e-06
-6.511526458e-06
-6.761278668e-06
-7.022244214e-06
-7.295073563e-06
-7.580484211e-06
-7.879271651e-06
-8.192322185e-06
-8.520628293e-06
-8.865306709e-06
-9.227620166e-06
-9.609002991e-06
-1.001109175e-05
-1.043576156e-05
-1.088516949e-05
-1.136180604e-05
-1.186855662e-05
-1.240877461e-05
-1.298636844e-05
-1.360590534e-05
-1.427273484e-05
-1.499313589e-05
-1.577449215e-05
-1.662550058e-05
-1.755642021e-05
-1.85793678e-05
-1.970867061e-05
-2.096128581e-05
-2.235730019e-05
-2.392052483e-05
-2.567920296e-05
-2.766685236e-05
-2.992326779e-05
-3.249571361e-05
-3.54403426e-05
-3.882388333e-05
-4.272564698e-05
-4.72399134e-05
-5.247876757e-05
-5.857547098e-05
-6.568846819e-05
-7.40061469e-05
-8.375249239e-05
-9.519380293e-05
-0.0001086466636
-0.0001244874107
-0.000143163367
-0.0001652061688
-0.0001912475776
-0.0002220382288
-0.0002584698606
-0.000301601657
-0.0003526914605
-0.000413232741
-0.0004849983624
-0.0005700923841
-0.0006710113437
-0.0007907167201
-0.0009327205881
-0.001101186796
-0.00130105044
-0.001538158825
-0.001819437707
-0.002153087164
-0.002548812264
-0.003018094394
-0.00357451019
-0.004234105984
-0.005015836962
-0.005942081462
-0.007039242578
-0.008338450556
-0.009876381509
-0.01169620984
-0.01384871347
-0.01639355328
-0.01940074973
-0.0229523813
-0.02714453073
-0.03208950485
-0.03791835369
-0.04478371221
-0.05286298212
-0.06236186567
-0.07351824904
-0.08660641799
-0.1019415618
-0.119884491
-0.1408464497
-0.1652938476
-0.1937526657
-0.2268122022
-0.2651278271
-0.3094215985
-0.3604814475
-0.4191562969
-0.4863474091
-0.5629943527
-0.6500541633
-0.7484738467
-0.8591516454
-0.9828901948
-1.120337839
-1.271919065
-1.437754459
-1.617571817
-1.810611291
-2.015528857
-2.230303903
-2.452157971
-2.677492717
-2.901855707
-3.119941405
-3.325635218
-3.512103365
-3.671930001
-3.797297758
-3.880201903
-3.912690851
-3.887103168
-3.796298341
-3.633853292
-3.39420436
-3.072772539
-2.665975105
-2.171283401
-1.587208489
-0.9133603528
-0.1507163636
0.6974633341
1.623466333
2.610172431
3.71809339
4.831562788
6.526359001
8.030175774
9.186401842
8.380286653
10.26364035
11.35853451
12.0132394
12.69779431
14.02131339
16.03512631
17.52002069
17.73077674
17.28123497
15.99321349
16.1232277
12.67155853
12.42674876
11.48665843
9.866385598
5.1666534
0.276347257
-6.625024508
-15.14173721
-23.99986924
-34.89091289
-45.90746203
-56.02620574
-64.23996242
-69.98521786
-72.971493
-66.62415586
-65.22899144
-60.31144838
-59.12058892
-58.35460861
-57.64330464
-56.90206801
-55.99557488
-53.53079085
-47.25843844
-41.38239605
-35.8349891
-30.4545271
-25.64658318
-22.06965044
-19.56353309
-17.77873809
-16.48996915
-13.59651552
-11.1510732
-9.739606885
-8.316074321
-6.991865386
-5.823145552
-4.82514225
-3.990144196
-3.287294664
-2.717044238
-2.247140961
-1.860321477
-1.54189668
-1.279621463
-1.063400308
-0.8849535376
-0.7375059728
-0.6155175673
-0.5144615952
-0.430628408
-0.3609835656
-0.3030420169
-0.2547665539
-0.2144854521
-0.1808254529
-0.1526572288
-0.1290508841
-0.1092397069
-0.09259062493
-0.07858011659
-0.06677455944
-0.05681422644
-0.04840021281
-0.04128375788
-0.03525751304
-0.03014839055
-0.02581169735
-0.02212631444
-0.01899072751
-0.01631975219
-0.01404182681
-0.01209676989
-0.010433919
-0.009010583494
-0.007790755783
-0.006744036588
-0.005844737227
-0.005071128965
-0.004404814646
-0.003830202214
-0.003334063235
-0.002905162453
-0.002533946737
-0.002212283765
-0.001933242346
-0.001690907666
-0.001480225799
-0.001296872784
-0.001137144297
-0.0009978626228
-0.0008762981452
-0.0007701030352
-0.0006772551805
-0.0005960107327
-0.0005248638944
-0.0004625128057
-0.0004078305635
-0.0003598405702
-0.0003176955347
-0.000280659559
-0.0002480928333
-0.000219438543
-0.0001942116482
-0.0001719892558
-0.0001524023449
-0.0001351286457
-0.0001198865029
-0.0001064295793
-9.454227884e-05
-8.40357881e-05
-7.474464598e-05
-6.652376972e-05
-5.924587312e-05
-5.279922268e-05
-4.7085686e-05
-4.201903258e-05
-3.752345344e-05
-3.353226982e-05
-2.998680633e-05
-2.683540682e-05
-2.403257459e-05
-2.15382201e-05
-1.931700297e-05
-1.73377558e-05
-1.557297813e-05
-1.399839967e-05
-1.259258398e-05
-1.133659485e-05
-1.021369446e-05
-9.209082724e-06
-8.309666628e-06
-7.503857912e-06
-6.781395282e-06
-6.133188052e-06
-5.551178577e-06
-5.028221313e-06
-4.557976249e-06
-4.134815098e-06
-3.753738672e-06
-3.410304158e-06
-3.100560895e-06
-2.820993876e-06
-2.568473799e-06
-2.340213058e-06
-2.133726913e-06
-1.946799193e-06
-1.777451968e-06
-1.623918832e-06
-1.484621202e-06
-1.358147407e-06
-1.243234156e-06
-1.138750211e-06
-1.043681883e-06
-9.571201049e-07
-8.78249129e-07
-8.063364041e-07
-7.407236168e-07
-6.808187471e-07
-6.260890423e-07
-5.76054689e-07
-5.302833016e-07
-4.883848939e-07
-4.500075218e-07
-4.148333267e-07
-3.825750537e-07
-3.529729078e-07
-3.257917631e-07
-3.008187327e-07
-2.778608495e-07
-2.567431418e-07
-2.373068489e-07
-2.19407812e-07
-2.029150698e-07
-1.877095492e-07
-1.736829503e-07
-1.607366691e-07
-1.487809341e-07
-1.377339327e-07
-1.275210815e-07
-1.180743245e-07
-1.093315478e-07
-1.012360297e-07
-9.373593589e-08
-8.678388172e-08
-8.033653093e-08
-7.435422189e-08
-6.880065111e-08
-6.364254466e-08
-5.884941997e-08
-5.439333099e-08
-5.024864132e-08
-4.639181571e-08
-4.280125074e-08
-3.945710088e-08
-3.634112519e-08
-3.343654857e-08
-3.072794714e-08
-2.820112265e-08
-2.584299795e-08
-2.364153143e-08
-2.158561843e-08
-1.966502971e-08
-1.787032991e-08
-1.619278989e-08
-1.462436821e-08
-1.315762321e-08
-1.178568741e-08
-1.050219761e-08
-9.301272342e-09
-8.17746131e-09
-7.12572429e-09
-6.141380099e-09
-5.220085326e-09
-4.35781858e-09
-3.550846589e-09
-2.795690946e-09
-2.089120842e-09
-1.428133776e-09
-8.099412182e-10
-2.319358813e-10
3.083127767e-10
8.130685974e-10
1.284441509e-09
1.724397904e-09
2.134782992e-09
2.517318408e-09
2.873615513e-09
3.205187533e-09
3.51344557e-09
3.799716239e-09
4.065242293e-09
4.311190306e-09
4.53865299e-09
4.748664965e-09
4.942193771e-09
5.120153268e-09
5.283399201e-09
5.432742912e-09
5.568946023e-09
5.692728219e-09
5.804768612e-09
5.905712272e-09
5.996164061e-09
6.076698458e-09
6.147857838e-09
6.210155433e-09
6.264076662e-09
6.310085111e-09
6.348615571e-09
6.380081458e-09
6.404877057e-09
6.423376583e-09
6.435931974e-09
6.44288155e-09
6.444541805e-09
6.441218128e-09
6.433199962e-09
6.420761307e-09
6.404164803e-09
6.383658777e-09
6.359477567e-09
6.331849311e-09
6.300984769e-09
6.267087825e-09
6.23035675e-09
6.190974358e-09
6.149116824e-09
6.104953092e-09
6.058641052e-09
6.010336661e-09
5.960179069e-09
5.908310472e-09
5.854861215e-09
5.799957971e-09
5.743718739e-09
5.686258138e-09
5.627682541e-09
5.568096431e-09
5.507596898e-09
5.446276002e-09
5.384224497e-09
5.321527793e-09
5.258264624e-09
5.194511519e-09
5.130340887e-09
5.065821936e-09
5.00101928e-09
4.935995461e-09
4.870808668e-09
4.805516065e-09
4.740168618e-09
4.6748149e-09
4.609505095e-09
4.5442823e-09
4.479189937e-09
4.414267655e-09
4.349553929e-09
4.285083523e-09
4.220889786e-09
4.157004359e-09
4.093456978e-09
4.030276064e-09
3.967487264e-09
3.905114228e-09
3.843180587e-09
3.781710487e-09
3.720720516e-09
3.66022931e-09
3.60025295e-09
3.540808986e-09
3.481912576e-09
3.423576423e-09
3.365813068e-09
3.308635219e-09
3.2520524e-09
3.196073875e-09
3.140707187e-09
3.085960361e-09
3.031840949e-09
2.978354265e-09
2.925505598e-09
2.873299019e-09
2.821739146e-09
2.770828849e-09
2.720570005e-09
2.670966951e-09
2.622019587e-09
2.573728302e-09
2.526093281e-09
2.479114738e-09
2.432792404e-09
2.387124419e-09
2.342109688e-09
2.29774631e-09
2.254033187e-09
2.210966956e-09
2.168544157e-09
2.126761323e-09
2.085616129e-09
2.045105785e-09
2.005224922e-09
1.965969329e-09
1.927334883e-09
1.889316598e-09
1.851909875e-09
1.815109893e-09
1.778911458e-09
1.74330888e-09
1.708296496e-09
1.67386856e-09
1.640020391e-09
1.606744448e-09
1.574036148e-09
1.541889467e-09
1.510298253e-09
1.479255317e-09
1.448754595e-09
1.418790932e-09
1.389356711e-09
1.360446186e-09
1.332052015e-09
1.304169136e-09
1.276789827e-09
1.249908302e-09
1.223517079e-09
1.197610519e-09
1.172181975e-09
1.147224309e-09
1.122731544e-09
1.09869641e-09
1.075113171e-09
1.051974915e-09
1.029275485e-09
1.007007574e-09
9.851656583e-10
9.637432123e-10
9.427331944e-10
9.221299423e-10
9.019267767e-10
8.82117794e-10
8.626970253e-10
8.436579125e-10
8.249941682e-10
8.066997736e-10
7.887688191e-10
7.71195127e-10
7.539735818e-10
7.370977563e-10
7.205617794e-10
7.043599353e-10
6.884869813e-10
6.729368399e-10
6.577038785e-10
6.427828787e-10
6.281682039e-10
6.138549408e-10
5.998374025e-10
5.861104089e-10
5.726683305e-10
5.595068349e-10
5.466207108e-10
5.340051474e-10
5.216542363e-10
5.095637773e-10
4.977292085e-10
4.861459345e-10
4.748086791e-10
4.637133064e-10
4.528551968e-10
4.42229872e-10
4.318331129e-10
4.216605959e-10
4.11708234e-10
4.019712622e-10
3.924455509e-10
3.831268826e-10
3.740118363e-10
3.650962382e-10
3.563761068e-10
3.478475216e-10
3.395064787e-10
3.313501054e-10
3.233742816e-10
3.155756279e-10
3.079500846e-10
3.00494426e-10
2.932055884e-10
2.860797331e-10
2.791139371e-10
2.72304751e-10
2.656490695e-10
2.591438166e-10
2.527859781e-10
2.465726194e-10
2.405004619e-10
2.345669706e-10
2.28769233e-10
2.231041199e-10
2.175688322e-10
2.121602625e-10
2.068762435e-10
2.017145474e-10
1.966720205e-10
1.917465299e-10
1.869352013e-10
1.822357391e-10
1.776457057e-10
1.731629253e-10
1.687853602e-10
1.645107552e-10
1.60336628e-10
1.562607311e-10
1.522809523e-10
1.483950124e-10
1.446011133e-10
1.408972978e-10
1.372813122e-10
1.337516043e-10
1.303062348e-10
1.269432886e-10
1.236611974e-10
1.204576538e-10
1.173310679e-10
1.142797733e-10
1.113023167e-10
1.083969016e-10
1.055621057e-10
1.027961115e-10
1.000976404e-10
9.746500644e-11
9.489650246e-11
9.239073233e-11
8.994653176e-11
8.756253155e-11
8.523712717e-11
8.296910607e-11
8.075709819e-11
7.859999108e-11
7.649631303e-11
7.444525084e-11
7.244525038e-11
7.049551749e-11
6.859447352e-11
6.674109752e-11
6.493422889e-11
6.317299196e-11
6.145632092e-11
5.978331386e-11
5.815314217e-11
5.656444114e-11
5.501630489e-11
5.35078706e-11
5.203831359e-11
5.06065233e-11
4.921171008e-11
4.785323387e-11
4.653024831e-11
4.524203477e-11
4.398764831e-11
4.276631967e-11
4.157754255e-11
4.042070334e-11
3.929483005e-11
3.819935571e-11
3.713370026e-11
3.609700539e-11
3.508882398e-11
3.410868502e-11
3.315612502e-11
3.223050894e-11
3.133138981e-11
3.045831594e-11
2.961051125e-11
2.878781919e-11
2.798993221e-11
2.721628454e-11
2.646684805e-11
2.574137602e-11
2.503954424e-11
2.436119033e-11
2.370642725e-11
2.307462757e-11
2.246570229e-11
2.18790804e-11
2.131362968e-11
2.076751636e-11
2.023735131e-11
1.971615286e-11
1.919533321e-11
1.865718159e-11
1.807575554e-11
1.741288763e-11
1.661745105e-11
8.405496698e-12
8.822741629e-12
5.739092385e-12
3.693259739e-12
2.356011555e-12
1.484224945e-12
9.228004083e-13
5.666241998e-13
3.457683939e-13
2.120459389e-13
1.321694001e-13
8.672949997e-14
6.142900588e-14
4.756222796e-14
3.922966804e-14
3.262118473e-14
2.581838033e-14
1.806176956e-14
8.185332007e-15
-4.336103129e-15
-1.932529266e-14
-3.737538425e-14
-5.797335449e-14
-8.135904445e-14
-1.072862062e-13
-1.356988032e-13
-1.664557937e-13
-1.994227947e-13
-2.34490011e-13
-2.714998454e-13
-3.102699145e-13
-3.506344895e-13
-3.923844722e-13
-4.353239346e-13
-4.792193151e-13
-5.238806516e-13
-5.68952891e-13
-6.142368236e-13
-6.593708151e-13
-7.040676827e-13
-7.479870096e-13
-7.907914097e-13
-8.321263294e-13
-8.716280546e-13
-9.089304982e-13
-9.437040629e-13
-9.755653972e-13
-1.004243907e-12
-1.029315672e-12
-1.050600325e-12
-1.067811749e-12
-1.080781943e-12
-1.089242953e-12
-1.093238467e-12
-1.092562511e-12
-1.087321339e-12
-1.077496254e-12
-1.063259054e-12
-1.044782648e-12
-1.022234449e-12
-9.959288587e-13
-9.661806364e-13
-9.333190486e-13
-8.977466056e-13
-8.598299743e-13
-8.200175442e-13
-7.78721745e-13
-7.363611799e-13
-6.933487908e-13
-6.500798785e-13
-6.069225088e-13
-5.64227607e-13
-5.223119214e-13
-4.814596486e-13
-4.419009067e-13
-4.038729973e-13
-3.675314469e-13
-3.330116311e-13
-3.00422994e-13
-2.698183238e-13
-2.412363604e-13
-2.146879006e-13
-1.90147004e-13
-1.675716633e-13
-1.46923783e-13
-1.281106367e-13
-1.110483761e-13
-9.565219185e-14
-8.180783464e-14
-6.942052076e-14
-5.838484217e-14
-4.859398229e-14
-3.994578029e-14
-3.234390341e-14
-2.569191513e-14
-1.990047159e-14
-1.488544412e-14
-1.056877146e-14
-6.877853964e-15
-3.744880698e-15
-1.108387294e-15
1.087994346e-15
2.896476014e-15
4.363904759e-15
5.533604869e-15
6.444749201e-15
7.13267169e-15
7.630285887e-15
7.967195898e-15
8.168611379e-15
8.25991043e-15
8.261398468e-15
8.192656967e-15
8.070343517e-15
7.908774431e-15
7.721205353e-15
7.517673712e-15
7.307554509e-15
7.097910573e-15
6.89411032e-15
6.700650549e-15
6.520281805e-15
6.354504542e-15
6.203775797e-15
6.068051133e-15
5.946253004e-15
5.836531817e-15
5.736757666e-15
5.645011505e-15
5.55826762e-15
5.474114749e-15
5.390038081e-15
5.303437135e-15
5.212395859e-15
5.114611388e-15
5.008653896e-15
4.893493001e-15
4.767972323e-15
4.631707614e-15
4.483988473e-15
4.325485929e-15
4.156888913e-15
3.977688692e-15
3.789908074e-15
3.59413654e-15
3.390330151e-15
3.18125532e-15
2.966738356e-15
2.74957496e-15
2.529650635e-15
2.308642954e-15
2.086958214e-15
1.866646533e-15
1.647079192e-15
1.430481939e-15
1.216717329e-15
1.00682667e-15
8.013499684e-16
5.992085168e-16
4.029612196e-16
2.114362251e-16
2.579985264e-17
-1.54779959e-16
-3.293674173e-16
-4.975110693e-16
-6.599694863e-16
-8.157270674e-16
-9.658403804e-16
-1.109495695e-15
-1.246186785e-15
-1.376043965e-15
-1.499597405e-15
-1.616119026e-15
-1.726702372e-15
-1.829699475e-15
-1.926988801e-15
-2.018053077e-15
-2.101963152e-15
-2.180500112e-15
-2.253072433e-15
-2.32010263e-15
-2.381883866e-15
-2.439295986e-15
-2.492281074e-15
-2.541419736e-15
-2.587470837e-15
-2.631102392e-15
-2.67165249e-15
-2.711266996e-15
-2.749314788e-15
-2.786590687e-15
-2.823960174e-15
-2.861285236e-15
-2.899661078e-15
-2.938490536e-15
-2.979538179e-15
-3.021696876e-15
-3.065641962e-15
-3.11130475e-15
-3.159424551e-15
-3.209555509e-15
-3.26138892e-15
-3.314995947e-15
-3.370182995e-15
-3.42637236e-15
-3.483289457e-15
-3.540258983e-15
-3.596769925e-15
-3.652007841e-15
-3.705406284e-15
-3.756170305e-15
-3.802941495e-15
-3.845370813e-15
-3.881945664e-15
-3.91219471e-15
-3.934764648e-15
-3.948701979e-15
-3.953139336e-15
-3.946590522e-15
-3.928545773e-15
-3.898027614e-15
-3.854060839e-15
-3.796128405e-15
-3.723478232e-15
-3.635583596e-15
-3.532135677e-15
-3.412806657e-15
-3.277571809e-15
-3.126318643e-15
-2.959283234e-15
-2.776821336e-15
-2.579451574e-15
-2.367825816e-15
-2.142626875e-15
-1.90446775e-15
-1.655172345e-15
-1.395230347e-15
-1.126076033e-15
-8.496261273e-16
-5.664587078e-16
-2.788410795e-16
1.186523621e-17
3.045614397e-16
5.961038064e-16
8.865215049e-16
1.173388806e-15
1.4554857e-15
1.730847448e-15
1.999113054e-15
2.260928209e-15
)
;

boundaryField
{
    inlet
    {
        type            calculated;
        value           uniform 0;
    }
    outlet
    {
        type            calculated;
        value           uniform 2.340278989e-15;
    }
    wall
    {
        type            empty;
    }
}


// ************************************************************************* //
