/*--------------------------------*- C++ -*----------------------------------*\
  =========                 |
  \\      /  F ield         | OpenFOAM: The Open Source CFD Toolbox
   \\    /   O peration     | Website:  https://openfoam.org
    \\  /    A nd           | Version:  7
     \\/     M anipulation  |
\*---------------------------------------------------------------------------*/
FoamFile
{
    version     2.0;
    format      ascii;
    class       volScalarField;
    location    "0.000558243009";
    object      ddt0(rho,CH3OH);
}
// * * * * * * * * * * * * * * * * * * * * * * * * * * * * * * * * * * * * * //

dimensions      [1 -3 -1 0 0 0 0];

internalField   nonuniform List<scalar> 
1500
(
-1.379844452e-08
-4.256848718e-08
-6.526968643e-08
-6.744779972e-08
-5.282033198e-08
-3.339676981e-08
-1.773782826e-08
-8.139400448e-09
-3.311086915e-09
-1.252303181e-09
-5.071387862e-10
-2.954542304e-10
-2.712011595e-10
-3.022414177e-10
-3.430083389e-10
-3.791816851e-10
-4.064739665e-10
-4.23654325e-10
-4.304757272e-10
-4.270779463e-10
-4.138246435e-10
-3.912518764e-10
-3.600419519e-10
-3.210025828e-10
-2.750469691e-10
-2.231747776e-10
-1.664548249e-10
-1.060101439e-10
-4.300553839e-11
2.136292329e-11
8.587756212e-11
1.493093353e-10
2.104301613e-10
2.680286113e-10
3.209296382e-10
3.680184958e-10
4.082683126e-10
4.40769761e-10
4.647612871e-10
4.796575943e-10
4.850740833e-10
4.808451322e-10
4.670344976e-10
4.4393672e-10
4.120691436e-10
3.721548974e-10
3.250978837e-10
2.71951397e-10
2.138823627e-10
1.521333474e-10
8.798447605e-11
2.271710177e-11
-4.241927012e-11
-1.062357605e-10
-1.676280304e-10
-2.255952109e-10
-2.792540418e-10
-3.278486604e-10
-3.707565915e-10
-4.074914784e-10
-4.377030121e-10
-4.611743713e-10
-4.778173931e-10
-4.876654961e-10
-4.90864413e-10
-4.876607144e-10
-4.783882549e-10
-4.634527861e-10
-4.433151774e-10
-4.184738766e-10
-3.894473969e-10
-3.567577132e-10
-3.209154663e-10
-2.824077965e-10
-2.41689472e-10
-1.991776921e-10
-1.552507119e-10
-1.10250068e-10
-6.448593274e-11
-1.824488262e-11
2.820081967e-11
7.458337983e-11
1.206300166e-10
1.660547743e-10
2.105522827e-10
2.53793986e-10
2.954271097e-10
3.350764442e-10
3.723488078e-10
4.06839875e-10
4.381429369e-10
4.658590582e-10
4.896080534e-10
5.090396673e-10
5.23844397e-10
5.33763371e-10
5.385968378e-10
5.382108326e-10
5.325417518e-10
5.2159864e-10
5.054631482e-10
4.842872531e-10
4.582889441e-10
4.27746216e-10
3.929897782e-10
3.543949548e-10
3.123732752e-10
2.673642067e-10
2.1982742e-10
1.702358894e-10
1.190699901e-10
6.681261039e-11
1.394521395e-11
-3.905538393e-11
-9.171976248e-11
-1.435884849e-10
-1.942147984e-10
-2.431676794e-10
-2.900353615e-10
-3.344293693e-10
-3.759889749e-10
-4.143858903e-10
-4.493289445e-10
-4.805684337e-10
-5.078998377e-10
-5.311666322e-10
-5.502620045e-10
-5.651293564e-10
-5.757616063e-10
-5.821993886e-10
-5.845283375e-10
-5.828757249e-10
-5.77406722e-10
-5.6832057e-10
-5.55846883e-10
-5.402422538e-10
-5.217872063e-10
-5.007834809e-10
-4.775514816e-10
-4.52427694e-10
-4.2576177e-10
-3.97912996e-10
-3.692458725e-10
-3.401245669e-10
-3.109061771e-10
-2.81932786e-10
-2.535225079e-10
-2.259598416e-10
-1.994858291e-10
-1.742885874e-10
-1.504949059e-10
-1.281635982e-10
-1.072813041e-10
-8.776126921e-11
-6.944559787e-11
-5.211112853e-11
-3.547901058e-11
-1.922762491e-11
-3.008415219e-12
1.353621473e-11
3.075383218e-11
4.896288887e-11
6.843476324e-11
8.937810555e-11
1.119265287e-10
1.36130569e-10
1.619544673e-10
1.892781138e-10
2.179040568e-10
2.475691313e-10
2.779598976e-10
3.087307553e-10
3.395233498e-10
3.699858156e-10
3.997903321e-10
4.286475845e-10
4.563170741e-10
4.826124666e-10
5.074017088e-10
5.306020715e-10
5.521708213e-10
5.720925856e-10
5.90364817e-10
6.069829503e-10
6.219268217e-10
6.351497801e-10
6.46571645e-10
6.560761379e-10
6.635131042e-10
6.687052107e-10
6.714584906e-10
6.715757345e-10
6.688715585e-10
6.631879332e-10
6.544090599e-10
6.424745699e-10
6.273902993e-10
6.092360549e-10
5.881699318e-10
5.644287364e-10
5.383242819e-10
5.102350365e-10
4.80592834e-10
4.498644367e-10
4.18527917e-10
3.870446097e-10
3.558278224e-10
3.252107049e-10
2.954164291e-10
2.665348004e-10
2.38509917e-10
2.111434315e-10
1.841171502e-10
1.570371847e-10
1.294992084e-10
1.011711432e-10
7.188603365e-11
4.173415305e-11
1.114023992e-11
-1.908989262e-11
-4.7769315e-11
-7.339010591e-11
-9.425252023e-11
-1.086646909e-10
-1.152049657e-10
-1.130282632e-10
-1.021868364e-10
-8.392607033e-11
-6.090899272e-11
-3.732037627e-11
-1.88041973e-11
-1.219735841e-11
-2.503874616e-11
-6.485452059e-11
-1.382477256e-10
-2.498498791e-10
-4.012216421e-10
-5.898159675e-10
-8.081365135e-10
-1.043234683e-09
-1.276689171e-09
-1.485207489e-09
-1.64198341e-09
-1.71896247e-09
-1.6901471e-09
-1.53610411e-09
-1.249088284e-09
-8.378293928e-10
-3.241525214e-10
2.758957837e-10
6.497866759e-10
6.993196615e-10
7.382404287e-10
7.746282929e-10
8.103426609e-10
8.45734432e-10
8.807215119e-10
9.151481962e-10
9.488458805e-10
9.816822399e-10
1.013557179e-09
1.044388402e-09
1.074105086e-09
1.102632397e-09
1.129893108e-09
1.155806539e-09
1.180283572e-09
1.203230718e-09
1.224549289e-09
1.244137069e-09
1.261885865e-09
1.277680155e-09
1.291402508e-09
1.302927506e-09
1.312127039e-09
1.318859642e-09
1.322984175e-09
1.324347891e-09
1.322794921e-09
1.318155504e-09
1.310257462e-09
1.298915268e-09
1.28393695e-09
1.265120639e-09
1.242250927e-09
1.215105704e-09
1.183450226e-09
1.147035576e-09
1.105602959e-09
1.058879874e-09
1.006578685e-09
9.483975758e-10
8.840188461e-10
8.131110234e-10
7.35322449e-10
6.502846272e-10
5.576125677e-10
4.568991442e-10
3.477164621e-10
2.296179663e-10
1.021315052e-10
-3.523638745e-11
-1.830063095e-10
-3.417213528e-10
-5.11953691e-10
-6.94303347e-10
-8.89400035e-10
-1.097903862e-09
-1.320505976e-09
-1.557931105e-09
-1.810940904e-09
-2.080329499e-09
-2.366932298e-09
-2.671620544e-09
-2.995309097e-09
-3.338951283e-09
-3.703547926e-09
-4.090143997e-09
-4.499829826e-09
-4.933748155e-09
-5.393088891e-09
-5.879095712e-09
-6.393064677e-09
-6.936351686e-09
-7.510364707e-09
-8.116577062e-09
-8.756517746e-09
-9.431782722e-09
-1.014403059e-08
-1.089498888e-08
-1.168645221e-08
-1.252028585e-08
-1.339842987e-08
-1.432289237e-08
-1.529576541e-08
-1.631921194e-08
-1.739547962e-08
-1.85268942e-08
-1.97158634e-08
-2.096488264e-08
-2.227653166e-08
-2.365347717e-08
-2.509847651e-08
-2.661437597e-08
-2.820411393e-08
-2.98707231e-08
-3.161732707e-08
-3.344714733e-08
-3.536349976e-08
-3.736979781e-08
-3.94695525e-08
-4.166637046e-08
-4.396396144e-08
-4.636612788e-08
-4.887677632e-08
-5.149991021e-08
-5.423962866e-08
-5.710013293e-08
-6.00857207e-08
-6.320078562e-08
-6.644981835e-08
-6.983740441e-08
-7.336822085e-08
-7.704703948e-08
-8.087872012e-08
-8.486821265e-08
-8.90205494e-08
-9.334085313e-08
-9.783431978e-08
-1.02506228e-07
-1.073619293e-07
-1.124068481e-07
-1.176464759e-07
-1.230863675e-07
-1.287321405e-07
-1.345894625e-07
-1.406640585e-07
-1.469616938e-07
-1.534881797e-07
-1.602493594e-07
-1.672511072e-07
-1.744993229e-07
-1.819999232e-07
-1.897588402e-07
-1.977820077e-07
-2.060753585e-07
-2.146448227e-07
-2.234963111e-07
-2.326357147e-07
-2.420688984e-07
-2.518016851e-07
-2.618398579e-07
-2.721891465e-07
-2.828552255e-07
-2.938436969e-07
-3.051600938e-07
-3.168098607e-07
-3.287983569e-07
-3.411308432e-07
-3.538124717e-07
-3.668482837e-07
-3.802431957e-07
-3.94002001e-07
-4.081293512e-07
-4.226297591e-07
-4.375075837e-07
-4.527670277e-07
-4.684121333e-07
-4.844467678e-07
-5.008746259e-07
-5.176992208e-07
-5.349238767e-07
-5.52551732e-07
-5.705857206e-07
-5.890285834e-07
-6.0788286e-07
-6.271508762e-07
-6.468347574e-07
-6.669364148e-07
-6.874575511e-07
-7.083996605e-07
-7.297640191e-07
-7.515517026e-07
-7.737635759e-07
-7.964002975e-07
-8.194623264e-07
-8.429499296e-07
-8.668631765e-07
-8.912019556e-07
-9.15965983e-07
-9.411547973e-07
-9.66767785e-07
-9.92804184e-07
-1.019263094e-06
-1.046143489e-06
-1.073444241e-06
-1.101164118e-06
-1.12930182e-06
-1.157855979e-06
-1.186825191e-06
-1.216208034e-06
-1.24600308e-06
-1.276208933e-06
-1.306824241e-06
-1.33784773e-06
-1.369278232e-06
-1.401114703e-06
-1.433356267e-06
-1.466002242e-06
-1.499052173e-06
-1.532505864e-06
-1.566363427e-06
-1.600625298e-06
-1.635292313e-06
-1.670365701e-06
-1.705847171e-06
-1.741738938e-06
-1.778043764e-06
-1.814765018e-06
-1.851906725e-06
-1.889473601e-06
-1.927471144e-06
-1.965905636e-06
-2.004784255e-06
-2.044115093e-06
-2.083907231e-06
-2.124170821e-06
-2.164917116e-06
-2.206158559e-06
-2.247908839e-06
-2.290182977e-06
-2.332997389e-06
-2.37636995e-06
-2.420320089e-06
-2.464868855e-06
-2.510039005e-06
-2.55585507e-06
-2.602343464e-06
-2.649532558e-06
-2.697452746e-06
-2.74613658e-06
-2.795618841e-06
-2.845936616e-06
-2.897129433e-06
-2.949239316e-06
-3.002310931e-06
-3.056391659e-06
-3.111531717e-06
-3.167784271e-06
-3.225205532e-06
-3.283854873e-06
-3.343794964e-06
-3.405091877e-06
-3.467815202e-06
-3.532038184e-06
-3.597837864e-06
-3.665295173e-06
-3.734495081e-06
-3.805526784e-06
-3.878483747e-06
-3.953463934e-06
-4.030569939e-06
-4.109909104e-06
-4.1915937e-06
-4.275741102e-06
-4.362473941e-06
-4.451920221e-06
-4.544213562e-06
-4.639493252e-06
-4.737904365e-06
-4.83959769e-06
-4.944727779e-06
-5.053482265e-06
-5.165351168e-06
-5.28123751e-06
-5.401834199e-06
-5.52819324e-06
-5.658725382e-06
-5.793606245e-06
-5.933050117e-06
-6.077279639e-06
-6.226528704e-06
-6.381041874e-06
-6.541075194e-06
-6.706896679e-06
-6.878787054e-06
-7.057035329e-06
-7.242125194e-06
-7.437202426e-06
-7.639982156e-06
-7.850747904e-06
-8.069870903e-06
-8.296997324e-06
-8.532619878e-06
-8.777627854e-06
-9.032419517e-06
-9.2973942e-06
-9.572971793e-06
-9.859589381e-06
-1.015770084e-05
-1.046777754e-05
-1.079030895e-05
-1.112580346e-05
-1.147478953e-05
-1.183781647e-05
-1.221545577e-05
-1.260830242e-05
-1.30169761e-05
-1.344212284e-05
-1.388441679e-05
-1.434456198e-05
-1.482329463e-05
-1.532138538e-05
-1.583964228e-05
-1.637891359e-05
-1.694009158e-05
-1.75241164e-05
-1.813198068e-05
-1.876473493e-05
-1.942349345e-05
-2.010944152e-05
-2.082384329e-05
-2.156805126e-05
-2.234351695e-05
-2.315180374e-05
-2.39946011e-05
-2.487374188e-05
-2.579122189e-05
-2.674922296e-05
-2.775014001e-05
-2.879661206e-05
-2.989155925e-05
-3.103822546e-05
-3.224022867e-05
-3.350161912e-05
-3.482694858e-05
-3.622135016e-05
-3.769063276e-05
-3.924139099e-05
-4.08811346e-05
-4.261843968e-05
-4.446312608e-05
-4.64264652e-05
-4.852142363e-05
-5.07629489e-05
-5.316830402e-05
-5.575746008e-05
-5.855355621e-05
-6.158343844e-05
-6.487829238e-05
-6.847438271e-05
-7.241392222e-05
-7.674608817e-05
-8.152821425e-05
-8.682718697e-05
-9.272108091e-05
-9.930107475e-05
-0.0001066736949
-0.0001149634428
-0.0001243158714
-0.000134901186
-0.0001469184598
-0.000160600566
-0.0001762199499
-0.0001940953804
-0.0002145998472
-0.0002381697957
-0.0002653159234
-0.0002966357997
-0.0003328286151
-0.0003747124079
-0.0004232441947
-0.0004795434673
-0.00054491963
-0.0006209040151
-0.0007092872416
-0.0008121627767
-0.0009319777313
-0.00107159206
-0.001234347517
-0.001424147964
-0.001645552841
-0.001903885894
-0.002205361613
-0.002557232126
-0.002967957825
-0.003447405314
-0.004007077007
-0.004660377057
-0.005422919252
-0.006312882964
-0.007351424278
-0.008563150244
-0.009976665145
-0.01162519861
-0.01354732681
-0.01578779857
-0.01839847951
-0.02143942861
-0.02498012157
-0.02910083689
-0.0338942194
-0.03946703669
-0.04594214156
-0.05346065046
-0.06218434447
-0.07229829255
-0.08401368507
-0.09757085579
-0.1132424489
-0.1313366669
-0.152200501
-0.1762228098
-0.2038370607
-0.2355234915
-0.2718103743
-0.3132739853
-0.3605369468
-0.4142634665
-0.475152896
-0.5439281124
-0.6213198046
-0.7080450264
-0.8047788793
-0.9121205147
-1.030548274
-1.160369604
-1.301661918
-1.454207087
-1.617421265
-1.790283109
-1.971264522
-2.158269173
-2.348584926
-2.538856726
-2.725086405
-2.902665238
-3.066442346
-3.210831651
-3.329953845
-3.417808472
-3.46846654
-3.476269757
-3.436028098
-3.343187624
-3.193972494
-2.985481838
-2.715734421
-2.38369911
-1.989241462
-1.533117966
-1.01692806
-0.4431334812
0.1847902034
0.8618881689
1.580845186
2.329895542
3.149468092
3.963879908
5.124897745
6.120618879
6.863423581
6.490181067
7.760715438
8.677077254
9.389580047
9.982553016
10.51593835
11.09202216
11.7381931
12.57629803
13.70959516
14.4216172
16.12190341
14.72610527
16.23545179
17.5348642
18.96653174
17.50903967
19.56470403
23.81268085
32.42342835
35.646821
34.04541123
27.33346418
17.63913883
6.572665671
-5.208825286
-16.69964888
-22.19689392
-30.7499114
-35.32958524
-42.19922374
-47.97803507
-52.38599329
-55.79343619
-58.70007378
-59.70653323
-55.90892123
-51.79221037
-47.39045798
-42.38109017
-37.77613302
-34.08020978
-31.28404439
-29.06599902
-27.08301018
-22.97197818
-19.32297244
-16.92094542
-14.5291428
-12.29950843
-10.31172662
-8.590444714
-7.127931228
-5.885297449
-4.859610355
-4.006843495
-3.300349918
-2.716551144
-2.235078263
-1.838593083
-1.51247407
-1.244469397
-1.024361801
-0.8436670721
-0.6953514211
-0.5736080837
-0.4736531318
-0.3915527546
-0.3240775956
-0.2685803408
-0.2228933583
-0.1852433469
-0.154180525
-0.1285200638
-0.1072938042
-0.08971055344
-0.07512355228
-0.06300384182
-0.05291850952
-0.04451294602
-0.03749638921
-0.031630156
-0.02671806719
-0.02259865884
-0.01913884672
-0.01622877184
-0.01377760491
-0.01171012923
-0.009963955333
-0.00848724832
-0.007236871458
-0.006176867878
-0.005277217115
-0.00451281522
-0.003862636966
-0.003309046521
-0.00283722934
-0.002434723152
-0.002091030106
-0.001797295466
-0.001546040979
-0.001330943237
-0.001146649127
-0.0009886218988
-0.0008530125845
-0.0007365523988
-0.0006364625795
-0.0005503787195
-0.000476287176
-0.0004124715535
-0.0003574676098
-0.0003100252086
-0.0002690761832
-0.0002337071601
-0.0002031365532
-0.0001766950691
-0.0001538091718
-0.0001339870435
-0.0001168066563
-0.0001019056266
-8.897258045e-05
-7.773979917e-05
-6.797694955e-05
-5.948573584e-05
-5.209533475e-05
-4.565849584e-05
-4.00482082e-05
-3.515484964e-05
-3.088374645e-05
-2.715308372e-05
-2.389211451e-05
-2.103962444e-05
-1.854261412e-05
-1.635516794e-05
-1.443748244e-05
-1.275503129e-05
-1.127784677e-05
-9.979901613e-06
-8.83857672e-06
-7.834201932e-06
-6.949662712e-06
-6.170055926e-06
-5.482397479e-06
-4.875367539e-06
-4.339091003e-06
-3.86494746e-06
-3.445406754e-06
-3.07388683e-06
-2.744630474e-06
-2.452598569e-06
-2.193377564e-06
-1.963099164e-06
-1.758370592e-06
-1.576214054e-06
-1.414014161e-06
-1.269472149e-06
-1.140566154e-06
-1.025516519e-06
-9.227556181e-07
-8.309015982e-07
-7.487354632e-07
-6.751810504e-07
-6.092876333e-07
-5.502145983e-07
-4.972181667e-07
-4.496397105e-07
-4.068955962e-07
-3.684682464e-07
-3.338982777e-07
-3.027776775e-07
-2.747437865e-07
-2.494740007e-07
-2.266811374e-07
-2.061093708e-07
-1.875306084e-07
-1.707413999e-07
-1.555600499e-07
-1.418242505e-07
-1.29388876e-07
-1.181240983e-07
-1.079136751e-07
-9.865346926e-08
-9.025015449e-08
-8.26199502e-08
-7.568769442e-08
-6.938589034e-08
-6.365385428e-08
-5.843703299e-08
-5.368632384e-08
-4.935753594e-08
-4.541083289e-08
-4.181034867e-08
-3.852373063e-08
-3.552179381e-08
-3.277819093e-08
-3.026912535e-08
-2.79731026e-08
-2.587068985e-08
-2.394430387e-08
-2.217805192e-08
-2.055754085e-08
-1.906974028e-08
-1.770283936e-08
-1.644613163e-08
-1.528992393e-08
-1.422540818e-08
-1.324460273e-08
-1.234025381e-08
-1.150577555e-08
-1.073518707e-08
-1.0023051e-08
-9.364417639e-09
-8.754792415e-09
-8.190088768e-09
-7.666578394e-09
-7.180860618e-09
-6.729848804e-09
-6.310730501e-09
-5.920925161e-09
-5.558090665e-09
-5.22008341e-09
-4.904956831e-09
-4.610920123e-09
-4.336341614e-09
-4.079728263e-09
-3.839719007e-09
-3.6150686e-09
-3.404625167e-09
-3.207343836e-09
-3.022264315e-09
-2.848502932e-09
-2.685246354e-09
-2.531754328e-09
-2.387348142e-09
-2.251400751e-09
-2.123330564e-09
-2.002605065e-09
-1.888733141e-09
-1.781264588e-09
-1.679787812e-09
-1.583912785e-09
-1.49328562e-09
-1.40757402e-09
-1.3264766e-09
-1.249710642e-09
-1.177014042e-09
-1.108146442e-09
-1.042883024e-09
-9.810123194e-10
-9.223426512e-10
-8.666910145e-10
-8.138897835e-10
-7.637788299e-10
-7.16214112e-10
-6.710578365e-10
-6.281837577e-10
-5.874684316e-10
-5.488005583e-10
-5.120747672e-10
-4.771919238e-10
-4.440580359e-10
-4.12590029e-10
-3.82702218e-10
-3.543170485e-10
-3.273629291e-10
-3.017704075e-10
-2.774733063e-10
-2.544093625e-10
-2.325192119e-10
-2.117510548e-10
-1.920519495e-10
-1.733717983e-10
-1.5566632e-10
-1.388878967e-10
-1.229950968e-10
-1.07947627e-10
-9.370612551e-11
-8.023678757e-11
-6.750356731e-11
-5.547390686e-11
-4.411562455e-11
-3.339845106e-11
-2.329267438e-11
-1.377271973e-11
-4.812419798e-12
3.612818928e-12
1.153037053e-11
1.895919556e-11
2.592409201e-11
3.244424659e-11
3.854093675e-11
4.423166541e-11
4.953509339e-11
5.446803258e-11
5.904772552e-11
6.329108988e-11
6.721424295e-11
7.083066601e-11
7.415577829e-11
7.720504132e-11
7.998902574e-11
8.252019369e-11
8.481161527e-11
8.687282642e-11
8.871728207e-11
9.035474791e-11
9.179420855e-11
9.304604595e-11
9.41187128e-11
9.502213254e-11
9.576518184e-11
9.635582263e-11
9.680284366e-11
9.711269544e-11
9.729295294e-11
9.735058784e-11
9.729335806e-11
9.712650822e-11
9.685609628e-11
9.648823205e-11
9.603006338e-11
9.548558982e-11
9.485943734e-11
9.415742846e-11
9.338398701e-11
9.254393415e-11
9.164177238e-11
9.06806928e-11
8.966655548e-11
8.860238947e-11
8.749115767e-11
8.633607455e-11
8.51409e-11
8.390881146e-11
8.264364119e-11
8.134779483e-11
8.002300679e-11
7.867272346e-11
7.729971339e-11
7.590576862e-11
7.449427889e-11
7.306801901e-11
7.162763039e-11
7.017537001e-11
6.871309612e-11
6.72433217e-11
6.576675067e-11
6.428507603e-11
6.280011219e-11
6.131327431e-11
5.98258247e-11
5.833980553e-11
5.685630934e-11
5.537548061e-11
5.39004465e-11
5.243097689e-11
5.096800581e-11
4.951296969e-11
4.806619925e-11
4.662805294e-11
4.520074748e-11
4.378416373e-11
4.237902317e-11
4.098654152e-11
3.960615729e-11
3.823952182e-11
3.688619608e-11
3.554828738e-11
3.422522536e-11
3.29179957e-11
3.162595682e-11
3.034971783e-11
2.909013443e-11
2.784692831e-11
2.662129672e-11
2.54133828e-11
2.422314391e-11
2.305060722e-11
2.189581768e-11
2.075864786e-11
1.964002131e-11
1.853967725e-11
1.74574568e-11
1.639411112e-11
1.534915281e-11
1.432353449e-11
1.331673361e-11
1.232886177e-11
1.13598478e-11
1.040976146e-11
9.478588933e-12
8.566012674e-12
7.672238122e-12
6.797188944e-12
5.941008359e-12
5.10374148e-12
4.285842356e-12
3.486228795e-12
2.704235389e-12
1.94052215e-12
1.194805124e-12
4.67637178e-13
-2.411734282e-13
-9.318075086e-13
-1.605019067e-12
-2.26077237e-12
-2.898987565e-12
-3.519798887e-12
-4.123092712e-12
-4.708845732e-12
-5.277679692e-12
-5.829615704e-12
-6.365182028e-12
-6.884399567e-12
-7.386885136e-12
-7.873063822e-12
-8.34284838e-12
-8.797277704e-12
-9.235784241e-12
-9.658573114e-12
-1.006593688e-11
-1.045799641e-11
-1.083468285e-11
-1.119650373e-11
-1.154362536e-11
-1.187625645e-11
-1.219442396e-11
-1.249807428e-11
-1.278779538e-11
-1.306365711e-11
-1.332602965e-11
-1.35749942e-11
-1.38104359e-11
-1.403289226e-11
-1.424215835e-11
-1.443883323e-11
-1.462246116e-11
-1.479368246e-11
-1.495228972e-11
-1.509874926e-11
-1.523353769e-11
-1.535639657e-11
-1.546772625e-11
-1.556760506e-11
-1.565620913e-11
-1.573336933e-11
-1.579968735e-11
-1.585535918e-11
-1.590016495e-11
-1.593470186e-11
-1.595856347e-11
-1.597201724e-11
-1.597521296e-11
-1.596881038e-11
-1.595300088e-11
-1.592775329e-11
-1.589294361e-11
-1.58491952e-11
-1.579643854e-11
-1.573490088e-11
-1.566454749e-11
-1.558564687e-11
-1.549822936e-11
-1.54023926e-11
-1.529840631e-11
-1.518648849e-11
-1.506679123e-11
-1.493902538e-11
-1.480378267e-11
-1.466116176e-11
-1.451152034e-11
-1.435509467e-11
-1.41916826e-11
-1.402115811e-11
-1.384382942e-11
-1.365977501e-11
-1.346969485e-11
-1.327350449e-11
-1.307105519e-11
-1.286256046e-11
-1.264843053e-11
-1.242856648e-11
-1.220301135e-11
-1.197191765e-11
-1.173539923e-11
-1.149367995e-11
-1.124696899e-11
-1.099516511e-11
-1.073850073e-11
-1.047748635e-11
-1.02117771e-11
-9.941773237e-12
-9.667529497e-12
-9.389271804e-12
-9.106822481e-12
-8.820343027e-12
-8.53017224e-12
-8.236395006e-12
-7.939119456e-12
-7.63843063e-12
-7.334522832e-12
-7.027409063e-12
-6.716916278e-12
-6.403399583e-12
-6.087118423e-12
-5.768110875e-12
-5.44652953e-12
-5.122415029e-12
-4.796085571e-12
-4.467606564e-12
-4.13690741e-12
-3.804166945e-12
-3.469499663e-12
-3.132966755e-12
-2.794607533e-12
-2.454577103e-12
-2.112979581e-12
-1.770110345e-12
-1.426112605e-12
-1.081057049e-12
-7.349925229e-13
-3.878569327e-13
-4.004793554e-14
3.086930861e-13
6.580206554e-13
1.007826382e-12
1.358030853e-12
1.708194275e-12
2.058293053e-12
2.408196964e-12
2.75758101e-12
3.106242694e-12
3.453853252e-12
3.800220453e-12
4.144898581e-12
4.487777315e-12
4.828147448e-12
5.165555107e-12
5.499621397e-12
5.829965185e-12
6.15514794e-12
6.477176852e-12
6.788380939e-12
7.096245226e-12
7.390281608e-12
7.662647694e-12
7.906351587e-12
8.14375325e-12
1.018436513e-11
1.678566873e-11
2.17285933e-11
2.608660694e-11
2.982004506e-11
3.29175094e-11
3.53884832e-11
3.72467377e-11
3.851292424e-11
3.921357133e-11
3.937746801e-11
3.903466853e-11
3.822147779e-11
3.697239238e-11
3.532427238e-11
3.331351239e-11
3.097778132e-11
2.835466571e-11
2.548054546e-11
2.239172801e-11
1.912372149e-11
1.571112481e-11
1.218733131e-11
8.584902844e-12
4.934474172e-12
1.266096004e-12
-2.392053106e-12
-6.013086253e-12
-9.571641515e-12
-1.304385472e-11
-1.640745817e-11
-1.964173242e-11
-2.272761913e-11
-2.564768198e-11
-2.838621996e-11
-3.092929135e-11
-3.326469386e-11
-3.538211635e-11
-3.727313549e-11
-3.89313212e-11
-4.035226013e-11
-4.153361802e-11
-4.247521639e-11
-4.317896333e-11
-4.364894894e-11
-4.389145836e-11
-4.391477752e-11
-4.372923937e-11
-4.33470907e-11
-4.278214883e-11
-4.204988091e-11
-4.116695522e-11
-4.01509399e-11
-3.902018578e-11
-3.779320996e-11
-3.648862461e-11
-3.512457422e-11
-3.371855312e-11
-3.228702566e-11
-3.084513768e-11
-2.940649398e-11
-2.79830136e-11
-2.65847699e-11
-2.522002853e-11
-2.389508232e-11
-2.261451039e-11
-2.138115541e-11
-2.019637183e-11
-1.906018421e-11
-1.797153933e-11
-1.692852493e-11
-1.592864089e-11
-1.496900059e-11
-1.40465761e-11
-1.315837454e-11
-1.230161634e-11
-1.147383845e-11
-1.067303736e-11
-9.89766417e-12
-9.146727909e-12
-8.419705887e-12
-7.716624279e-12
-7.037877188e-12
-6.384281655e-12
-5.756930916e-12
-5.157114078e-12
-4.586233061e-12
-4.045725201e-12
-3.536957802e-12
-3.0611697e-12
-2.619387429e-12
-2.212383091e-12
-1.84060639e-12
-1.504185172e-12
-1.202875438e-12
-9.36076833e-13
-7.028277557e-13
-5.018259859e-13
-3.314575376e-13
-1.898311179e-13
-7.482277014e-14
1.587689652e-14
8.471003066e-14
1.341984521e-13
1.66891138e-13
1.853123612e-13
1.919147121e-13
1.890355479e-13
1.788614871e-13
1.633943052e-13
1.444333641e-13
1.235534436e-13
1.021002563e-13
8.118687401e-14
6.169762158e-14
4.43009184e-14
2.946092887e-14
1.745922632e-14
8.415549664e-15
2.311493088e-15
-9.844540107e-16
-1.693074724e-15
-1.001520996e-16
3.46532842e-15
8.651157351e-15
1.510008301e-14
2.246275937e-14
3.041180843e-14
3.864924853e-14
4.69134711e-14
5.498206837e-14
6.267366307e-14
6.9847536e-14
7.640119554e-14
8.226670117e-14
8.740788511e-14
9.181372726e-14
9.549543972e-14
9.848070235e-14
1.008084232e-13
1.025269586e-13
1.036887751e-13
1.043472953e-13
1.045561578e-13
1.0436558e-13
1.038210768e-13
1.029651366e-13
1.01833513e-13
1.004559987e-13
9.885729734e-14
9.705669326e-14
9.506760958e-14
9.289986049e-14
9.055888952e-14
8.804595165e-14
8.53596957e-14
8.249629475e-14
7.945042073e-14
7.621563294e-14
7.27857937e-14
6.915509443e-14
6.53186707e-14
6.127486173e-14
5.702375666e-14
5.256917599e-14
4.791920813e-14
4.308582018e-14
3.80857001e-14
3.293988325e-14
2.767418983e-14
2.231805112e-14
1.69051112e-14
1.147209596e-14
6.057507732e-15
7.027786761e-16
-4.55129578e-15
-9.663185103e-15
-1.459214411e-14
-1.929926116e-14
-2.374809892e-14
-2.790477992e-14
-3.173914921e-14
-3.522462898e-14
-3.833903298e-14
-4.106350477e-14
-4.33852564e-14
-4.529390761e-14
-4.678409076e-14
-4.785488175e-14
-4.850950874e-14
-4.875460424e-14
-4.860191765e-14
-4.806615326e-14
-4.716587994e-14
-4.592415549e-14
-4.436739877e-14
-4.252527947e-14
-4.043101282e-14
-3.812120233e-14
-3.563612863e-14
-3.301686746e-14
-3.030786913e-14
-2.755501825e-14
-2.480497826e-14
-2.210451071e-14
-1.949992585e-14
-1.703609213e-14
-1.475570152e-14
-1.269862047e-14
-1.090064179e-14
-9.392797797e-15
-8.201189683e-15
-7.346280946e-15
-6.841378949e-15
-6.694390109e-15
-6.905563553e-15
-7.469510629e-15
-8.373081693e-15
-9.597623947e-15
-1.111869874e-14
-1.290649926e-14
-1.492665122e-14
-1.714121434e-14
-1.950913418e-14
-2.198733036e-14
-2.453170597e-14
-2.709763385e-14
-2.964163607e-14
-3.212077825e-14
-3.449492601e-14
-3.672635734e-14
-3.878056698e-14
-4.062664911e-14
-4.223766384e-14
-4.359075937e-14
-4.466617994e-14
-4.544941539e-14
-4.59284457e-14
-4.609519545e-14
-4.59447547e-14
-4.547598279e-14
-4.468941827e-14
-4.358883272e-14
-4.21800221e-14
-4.04682849e-14
-3.846025228e-14
-3.615926325e-14
-3.356578155e-14
-3.067998419e-14
-2.750197971e-14
)
;

boundaryField
{
    inlet
    {
        type            calculated;
        value           uniform 0;
    }
    outlet
    {
        type            calculated;
        value           uniform -2.418579558e-14;
    }
    wall
    {
        type            empty;
    }
}


// ************************************************************************* //
