/*--------------------------------*- C++ -*----------------------------------*\
  =========                 |
  \\      /  F ield         | OpenFOAM: The Open Source CFD Toolbox
   \\    /   O peration     | Website:  https://openfoam.org
    \\  /    A nd           | Version:  7
     \\/     M anipulation  |
\*---------------------------------------------------------------------------*/
FoamFile
{
    version     2.0;
    format      ascii;
    class       volScalarField;
    location    "0.000558243009";
    object      ddt0(rho,H2O);
}
// * * * * * * * * * * * * * * * * * * * * * * * * * * * * * * * * * * * * * //

dimensions      [1 -3 -1 0 0 0 0];

internalField   nonuniform List<scalar> 
1500
(
-9.101853727e-05
-0.0002882109616
-0.0004520701394
-0.0004793016317
-0.0003858052681
-0.000251013421
-0.0001373231893
-6.496568202e-05
-2.725059588e-05
-1.057048072e-05
-4.266916003e-06
-2.337782887e-06
-2.007994985e-06
-2.176614977e-06
-2.45112248e-06
-2.704448073e-06
-2.897811638e-06
-3.019988647e-06
-3.068546977e-06
-3.044312507e-06
-2.949837053e-06
-2.788932739e-06
-2.5664613e-06
-2.288179915e-06
-1.960598006e-06
-1.590841409e-06
-1.186528884e-06
-7.556656624e-07
-3.065547242e-07
1.522780865e-07
6.121528793e-07
1.064308762e-06
1.499991699e-06
1.910566349e-06
2.287656715e-06
2.623316637e-06
2.910226345e-06
3.141903947e-06
3.312920917e-06
3.419105132e-06
3.457715081e-06
3.427570169e-06
3.329124872e-06
3.164478743e-06
2.937319522e-06
2.652801836e-06
2.317368905e-06
1.938528844e-06
1.524599766e-06
1.084438957e-06
6.271714354e-07
1.619309745e-07
-3.023756712e-07
-7.572739057e-07
-1.194891754e-06
-1.608094798e-06
-1.990586959e-06
-2.336980284e-06
-2.642837626e-06
-2.904692127e-06
-3.120046704e-06
-3.287355809e-06
-3.405990997e-06
-3.476190479e-06
-3.498993076e-06
-3.476156395e-06
-3.410060226e-06
-3.30359686e-06
-3.160051476e-06
-2.982977122e-06
-2.776069872e-06
-2.543050487e-06
-2.287558926e-06
-2.013067631e-06
-1.722818294e-06
-1.419784808e-06
-1.106663455e-06
-7.858887892e-07
-4.596717848e-07
-1.30055225e-07
2.010201435e-07
5.316454192e-07
8.598761581e-07
1.183674001e-06
1.500862207e-06
1.809098752e-06
2.105868982e-06
2.388498316e-06
2.654184069e-06
2.900044121e-06
3.123179357e-06
3.320746079e-06
3.490034235e-06
3.62854713e-06
3.734078559e-06
3.804783226e-06
3.839237261e-06
3.836485729e-06
3.796075251e-06
3.7180703e-06
3.603052902e-06
3.452106376e-06
3.266784609e-06
3.049069203e-06
2.801317531e-06
2.526204987e-06
2.226665045e-06
1.905830325e-06
1.566977464e-06
1.213477929e-06
8.487559394e-07
4.762536348e-07
9.9402994e-08
-2.783971365e-07
-6.538006206e-07
-1.023532491e-06
-1.38440819e-06
-1.733355288e-06
-2.067438623e-06
-2.38388905e-06
-2.680135228e-06
-2.953837039e-06
-3.202918954e-06
-3.425601029e-06
-3.620425398e-06
-3.786276318e-06
-3.92239241e-06
-4.028370224e-06
-4.104159282e-06
-4.150049235e-06
-4.166650507e-06
-4.154870313e-06
-4.115886034e-06
-4.051117908e-06
-3.962202674e-06
-3.850969383e-06
-3.719417673e-06
-3.569698414e-06
-3.40409552e-06
-3.225007533e-06
-3.034926857e-06
-2.83641456e-06
-2.632068883e-06
-2.424485696e-06
-2.216210468e-06
-2.009681649e-06
-1.807166825e-06
-1.610693968e-06
-1.421981278e-06
-1.242369696e-06
-1.072763006e-06
-9.135804437e-07
-7.647267735e-07
-6.255835945e-07
-4.950253882e-07
-3.714614081e-07
-2.529039464e-07
-1.370604313e-07
-2.144627284e-08
9.648755497e-08
2.192185889e-07
3.490168235e-07
4.87816703e-07
6.371055365e-07
7.978357468e-07
9.70367565e-07
1.154446096e-06
1.349215167e-06
1.553267299e-06
1.764726593e-06
1.981358782e-06
2.200700347e-06
2.420196855e-06
2.637340135e-06
2.849793401e-06
3.055494359e-06
3.252728676e-06
3.440168125e-06
3.616871393e-06
3.782248775e-06
3.935995653e-06
4.078002452e-06
4.20825101e-06
4.326708786e-06
4.433232047e-06
4.527488255e-06
4.608905865e-06
4.676656018e-06
4.729668381e-06
4.766678878e-06
4.786304876e-06
4.787140616e-06
4.767864644e-06
4.72735049e-06
4.664772714e-06
4.579700997e-06
4.47217694e-06
4.342769419e-06
4.192605376e-06
4.023372818e-06
3.83729442e-06
3.637067988e-06
3.425771733e-06
3.206732835e-06
2.983359105e-06
2.758939041e-06
2.53641879e-06
2.318173119e-06
2.105792848e-06
1.899918132e-06
1.700150487e-06
1.505076047e-06
1.312426662e-06
1.119394604e-06
9.230977414e-07
7.211689485e-07
5.1241813e-07
2.974887739e-07
7.940850889e-08
-1.360786455e-07
-3.405119905e-07
-5.231427259e-07
-6.718546863e-07
-7.745878674e-07
-8.212084105e-07
-8.056923884e-07
-7.284122694e-07
-5.982454396e-07
-4.341745515e-07
-2.66029599e-07
-1.340420833e-07
-8.694692698e-08
-1.784828985e-07
-4.622981054e-07
-9.854612468e-07
-1.780991646e-06
-2.860035234e-06
-4.20451314e-06
-5.761236369e-06
-7.438615698e-06
-9.107207758e-06
-1.060545901e-05
-1.175209407e-05
-1.236660539e-05
-1.229839389e-05
-1.146350243e-05
-9.879804459e-06
-7.687164118e-06
-5.094234701e-06
-2.211905418e-06
-6.306165837e-07
-2.857463847e-07
-1.72430716e-07
-1.268340037e-07
-1.036029743e-07
-9.172318152e-08
-8.966180899e-08
-9.865168759e-08
-1.210568795e-07
-1.593539558e-07
-2.15744363e-07
-2.920688712e-07
-3.898267808e-07
-5.103435018e-07
-6.548393559e-07
-8.2450827e-07
-1.020603158e-06
-1.244435272e-06
-1.497392295e-06
-1.780928583e-06
-2.096579979e-06
-2.445969319e-06
-2.830763925e-06
-3.252716354e-06
-3.713624901e-06
-4.215409069e-06
-4.760011372e-06
-5.349482545e-06
-5.985920745e-06
-6.671548355e-06
-7.40862957e-06
-8.199548121e-06
-9.046757273e-06
-9.952803702e-06
-1.09203528e-05
-1.195213862e-05
-1.305100519e-05
-1.42199163e-05
-1.546192327e-05
-1.678019068e-05
-1.817800489e-05
-1.965876521e-05
-2.122599391e-05
-2.288331873e-05
-2.463451626e-05
-2.648348514e-05
-2.843424055e-05
-3.049095141e-05
-3.265792711e-05
-3.493959848e-05
-3.73405637e-05
-3.986555314e-05
-4.251946665e-05
-4.530733531e-05
-4.823436365e-05
-5.130591534e-05
-5.452752068e-05
-5.790487559e-05
-6.14438398e-05
-6.515044854e-05
-6.903092953e-05
-7.309166356e-05
-7.733924022e-05
-8.178041068e-05
-8.642213542e-05
-9.127153824e-05
-9.633596268e-05
-0.0001016229382
-0.0001071401792
-0.0001128956265
-0.0001188973981
-0.0001251538272
-0.0001316734406
-0.000138465002
-0.0001455374434
-0.0001528999503
-0.0001605618788
-0.0001685328257
-0.0001768225845
-0.0001854411778
-0.0001943988317
-0.0002037059883
-0.0002133733226
-0.0002234116796
-0.000233832178
-0.0002446461001
-0.00025586498
-0.0002675005416
-0.0002795647132
-0.0002920696569
-0.0003050277298
-0.0003184514908
-0.0003323537146
-0.000346747367
-0.0003616456153
-0.0003770618334
-0.0003930095647
-0.0004095025629
-0.0004265547556
-0.0004441802582
-0.0004623933641
-0.0004812085222
-0.0005006403846
-0.0005207037217
-0.0005414135019
-0.0005627848321
-0.0005848329443
-0.0006075732413
-0.0006310212515
-0.0006551926252
-0.0006801031425
-0.0007057686991
-0.000732205284
-0.0007594290092
-0.0007874560643
-0.0008163027399
-0.0008459853788
-0.0008765204488
-0.0009079244225
-0.0009402138654
-0.0009734053772
-0.001007515609
-0.001042561241
-0.001078558974
-0.001115525548
-0.001153477673
-0.001192432113
-0.001232405582
-0.001273414822
-0.001315476528
-0.001358607377
-0.001402824023
-0.001448143072
-0.001494581111
-0.001542154642
-0.001590880117
-0.001640773962
-0.001691852503
-0.001744132013
-0.001797628716
-0.001852358715
-0.001908338072
-0.001965582752
-0.002024108674
-0.002083931633
-0.002145067393
-0.002207531591
-0.002271339831
-0.002336507646
-0.002403050477
-0.002470983728
-0.002540322721
-0.002611082775
-0.002683279125
-0.002756927015
-0.002832041643
-0.002908638211
-0.002986731951
-0.003066338082
-0.00314747189
-0.003230148718
-0.003314383966
-0.003400193181
-0.003487591964
-0.003576596114
-0.003667221619
-0.003759484602
-0.003853401483
-0.003948988908
-0.004046263838
-0.004145243586
-0.004245945781
-0.004348388531
-0.004452590372
-0.004558570328
-0.00466634798
-0.004775943535
-0.004887377802
-0.005000672316
-0.005115849407
-0.005232932158
-0.005351944583
-0.005472911643
-0.005595859305
-0.005720814594
-0.005847805765
-0.005976862231
-0.00610801479
-0.006241295586
-0.006376738272
-0.006514378097
-0.006654251926
-0.006796398433
-0.006940858104
-0.007087673434
-0.007236888981
-0.007388551451
-0.007542709868
-0.007699415674
-0.007858722829
-0.008020687932
-0.008185370413
-0.008352832544
-0.008523139788
-0.00869636064
-0.008872567042
-0.00905183444
-0.009234241867
-0.009419872197
-0.009608812323
-0.009801153166
-0.00999699014
-0.01019642297
-0.01039955623
-0.01060649926
-0.01081736647
-0.01103227768
-0.01125135805
-0.01147473851
-0.01170255586
-0.01193495311
-0.01217207963
-0.0124140914
-0.01266115127
-0.01291342926
-0.01317110275
-0.01343435678
-0.01370338437
-0.01397838681
-0.01425957379
-0.01454716398
-0.01484138524
-0.0151424748
-0.01545067989
-0.01576625776
-0.01608947636
-0.01642061451
-0.0167599624
-0.01710782197
-0.01746450733
-0.01783034514
-0.0182056752
-0.01859085088
-0.01898623953
-0.01939222312
-0.01980919882
-0.02023757939
-0.02067779386
-0.02113028843
-0.02159552663
-0.02207399045
-0.02256618105
-0.02307261929
-0.02359384673
-0.02413042655
-0.02468294437
-0.02525200889
-0.02583825324
-0.0264423354
-0.02706493844
-0.02770676887
-0.02836854833
-0.02905127933
-0.02975150819
-0.03047443488
-0.03122412769
-0.03200683045
-0.03281255666
-0.0336420176
-0.0344962307
-0.03537627567
-0.03628330297
-0.03721852964
-0.03818324616
-0.0391788223
-0.04020671584
-0.04126842848
-0.04236660855
-0.04352062148
-0.04471616727
-0.04595465637
-0.04723829625
-0.0485646943
-0.04993665866
-0.05135976227
-0.05283658571
-0.05436968886
-0.05596184669
-0.05761604305
-0.05933547912
-0.06112359254
-0.06298407898
-0.06492091674
-0.06693839669
-0.06904115168
-0.07123419301
-0.07352294961
-0.07591331051
-0.07841167383
-0.08102500093
-0.08376087522
-0.08662756993
-0.0896341208
-0.09279041031
-0.09610725745
-0.09959652158
-0.1032712151
-0.1071456301
-0.11123548
-0.1155580551
-0.1201323985
-0.1249794993
-0.1301225093
-0.1355869831
-0.1414011472
-0.147596196
-0.1542066251
-0.1612705996
-0.1688303639
-0.1769326999
-0.1856294322
-0.1949779958
-0.205042062
-0.2158922388
-0.2276068442
-0.2402727738
-0.2539864566
-0.2688549237
-0.2849969912
-0.3025445791
-0.3216441725
-0.3424584474
-0.3651680739
-0.3899737202
-0.4170982782
-0.4467893308
-0.4793218942
-0.5150014586
-0.5541673602
-0.5971965312
-0.6445076386
-0.6965656994
-0.7538871756
-0.817045632
-0.8866780069
-0.9634915522
-1.048271528
-1.141889717
-1.245313863
-1.359618102
-1.485994515
-1.625765911
-1.780399959
-1.951524811
-2.140946373
-2.350667397
-2.582908549
-2.840131693
-3.125065571
-3.440734158
-3.790487874
-4.178038091
-4.607495025
-5.083409558
-5.610819177
-6.195298587
-6.843015208
-7.560790196
-8.356165415
-9.237476702
-10.21393421
-11.29571028
-12.49403521
-13.82130202
-15.29118013
-16.91873931
-18.72058363
-20.71499685
-22.92209869
-25.36401349
-28.06505042
-31.05189578
-34.35381719
-38.00287903
-42.03416725
-46.48602382
-51.40028615
-56.82252938
-62.80230769
-69.39338646
-76.65396042
-84.64684493
-93.43963031
-103.1047829
-113.7196717
-125.3664989
-138.1321061
-152.1076171
-167.3878811
-184.0706638
-202.2555326
-222.0423667
-243.5294246
-266.8108818
-291.9737602
-319.0941499
-348.2326394
-379.4291367
-412.6955133
-448.0096485
-485.3062344
-524.4677751
-565.3146635
-607.5943485
-650.9724834
-695.0207538
-739.2095892
-782.9012953
-825.3467638
-865.6865873
-902.9578344
-936.1075831
-964.0141444
-985.5164789
-999.4516835
-1004.699683
-1000.233511
-985.1720796
-958.8328691
-920.7797083
-870.8620478
-809.2419177
-736.4050513
-653.1575724
-560.6016132
-460.099313
-353.2228682
-241.6961383
-127.3367883
-11.99522252
102.4929317
214.3576125
321.9603434
423.9125002
519.2767092
607.8626446
690.2908495
768.1277416
838.7911764
895.3592368
928.3870889
942.8591791
992.9965016
989.5184473
1005.156394
1018.771943
1024.597991
1022.428338
1017.895064
991.920732
954.1084948
919.8745366
830.0903549
716.3248117
933.9921395
782.3566728
616.1983155
481.737832
561.283502
435.90999
294.3343609
169.2909493
325.7605918
232.2121717
150.3182394
82.90803942
24.3996684
-27.20221299
-65.39594123
-18.83507029
-38.89641107
-37.76197712
-56.06551808
-79.0582923
-107.041206
-141.6026767
-183.016795
-205.0657532
-176.9073654
-155.3563679
-135.8656495
-112.796249
-94.50953769
-94.07078899
-113.3630883
-151.3170704
-192.390407
-188.3303282
-180.2689525
-194.487113
-199.0064769
-195.8831575
-189.0793573
-180.7363042
-171.6373848
-162.6817561
-153.2170571
-143.6388325
-133.6832274
-123.3861451
-112.7708459
-101.8823834
-90.7798065
-79.52874734
-68.19559492
-56.844273
-45.53033324
-34.30252518
-23.20208597
-12.26268512
-1.512671894
9.031589167
19.35340458
29.44247313
39.29371032
48.90401249
58.27335178
67.40384213
76.29930437
84.96481731
93.40646037
101.6310354
109.6458563
117.4585898
125.0770915
132.5093019
139.7631788
146.8465896
153.7672784
160.5328103
167.1505453
173.6276098
179.9708695
186.1869213
192.2820863
198.2623995
204.1335979
209.9011438
215.5701926
221.1456297
226.6320496
232.033768
237.3548406
242.5990522
247.7699309
252.8707605
257.9045785
262.8742039
267.782217
272.6310045
277.4227257
282.1593591
286.8426867
291.4743273
296.055707
300.5881114
305.0726519
309.5103118
313.9019286
318.2482039
322.5497269
326.8069625
331.0202651
335.1898933
339.3160018
343.3986519
347.4378346
351.433443
355.3853081
359.2931882
363.1567682
366.9756932
370.7495314
374.4778127
378.1600162
381.7955787
385.3838959
388.9243238
392.416192
395.858794
399.2514039
402.5951937
405.8855756
409.1240158
412.3089411
415.4399132
418.5160562
421.5365421
424.5004967
427.407072
430.2553775
433.0445387
435.7736765
438.4419135
441.0483611
443.59215
446.0723984
448.4882331
450.8387808
453.1231917
455.3405987
457.4901553
459.5710268
461.5823741
463.5233779
465.3932295
467.1911267
468.9162775
470.5679105
472.1452505
473.64756
475.0740901
476.4241196
477.6969398
478.8918493
480.0081688
481.0452298
482.0023943
482.8790088
483.6744589
484.3881461
485.0194808
485.567889
486.0328203
486.4137354
486.7101069
486.9214337
487.0472364
487.0870334
487.0403739
486.9068266
486.6859623
486.3773914
485.9807201
485.4955831
484.9216273
484.258527
483.505963
482.6636292
481.7312576
480.7085707
479.5953246
478.3912924
477.0962625
475.7100283
474.232419
472.6632726
471.0024326
469.249776
467.4051946
465.4685746
463.4398544
461.3189552
459.1058367
456.8004607
454.4028118
451.9128946
449.3307181
446.6563104
443.8897161
441.0310093
438.0802464
435.0375309
431.9029634
428.6766627
425.3587707
421.9494245
418.448797
414.8570587
411.1744088
407.4010459
403.5371912
399.583082
395.5389528
391.4050707
387.1817114
382.8691506
378.4676946
373.9776452
369.399334
364.7330919
359.9792687
355.1382279
350.2103368
345.1959751
340.0955479
334.9094594
329.6381209
324.2819712
318.8414456
313.3170008
307.7090948
302.0182006
296.2448083
290.3894064
284.4525025
278.4346017
272.3362455
266.1579586
259.9002845
253.5637871
247.14902
240.6565584
234.0869886
227.4409006
220.718896
213.9215771
207.0495758
200.1035106
193.084016
185.9917398
178.8273366
171.591469
164.2847924
156.9080007
149.4617723
141.9467984
134.3637821
126.7134341
118.9964698
111.2136079
103.3655835
95.45312808
87.47700192
79.43794201
71.33671433
63.1740919
54.95083468
46.66773068
38.32556718
29.92513837
21.46723689
12.95267602
4.382265375
-4.243174399
-12.92281887
-21.65583711
-30.44138904
-39.27863601
-48.16672442
-57.104802
-66.09200538
-75.12747262
-84.21032363
-93.33968905
-102.5146747
-111.7344
-120.9979694
-130.3044837
-139.6530324
-149.0427176
-158.4726064
-167.9417944
-177.4493494
-186.9943375
-196.5758312
-206.1928873
-215.8445581
-225.5298945
-235.2479474
-244.997752
-254.7783472
-264.588767
-274.4280356
-284.2951824
-294.1892123
-304.109155
-314.0540164
-324.0227998
-334.0145077
-344.0281421
-354.0626943
-364.1171605
-374.1905193
-384.2817561
-394.389853
-404.5137919
-414.6525194
-424.8050357
-434.9702836
-445.1472373
-455.3348507
-465.5320788
-475.737872
-485.9511863
-496.1709599
-506.3961426
-516.6256687
-526.8584825
-537.0935158
-547.3296969
-557.5659614
-567.8012369
-578.0344459
-588.2645114
-598.4903623
-608.710899
-618.9250607
-629.1317493
-639.3298784
-649.520168
-659.6978809
-669.8637696
-680.0167375
-690.1560667
-700.2799126
-710.387574
-720.4779195
-730.5498732
-740.6023358
-750.6342084
-760.6443858
-770.6317811
-780.595288
-790.5338137
-800.4462562
-810.3315189
-820.1884989
-830.0161078
-839.813245
-849.5788224
-859.3117356
-869.0108983
-878.6752198
-888.3036132
-897.8949857
-907.4482571
-916.9623385
-926.4361591
-935.8686328
-945.2586843
-954.6052444
-963.9072447
-973.1636147
-982.3732993
-991.5352328
-1000.64837
-1009.711648
-1018.724035
-1027.684478
-1036.591951
-1045.445414
-1054.243845
-1062.986227
-1071.671542
-1080.298778
-1088.866945
-1097.375033
-1105.822064
-1114.207051
-1122.529021
-1130.78701
-1138.980056
-1147.107208
-1155.167527
-1163.160078
-1171.083932
-1178.938182
-1186.721908
-1194.434224
-1202.074248
-1209.6411
-1217.133905
-1224.55182
-1231.893999
-1239.159611
-1246.347833
-1253.457866
-1260.488905
-1267.440167
-1274.310899
-1281.100322
-1287.807713
-1294.432332
-1300.973475
-1307.430437
-1313.802529
-1320.089091
-1326.28947
-1332.40302
-1338.429125
-1344.367182
-1350.216605
-1355.976816
-1361.647269
-1367.227426
-1372.716769
-1378.114802
-1383.421048
-1388.635038
-1393.756341
-1398.78453
-1403.719204
-1408.559987
-1413.306507
-1417.958441
-1422.51546
-1426.977269
-1431.343601
-1435.614194
-1439.788828
-1443.867285
-1447.849394
-1451.734981
-1455.523918
-1459.216091
-1462.811412
-1466.30981
-1469.711249
-1473.015717
-1476.223215
-1479.333788
-1482.347496
-1485.26442
-1488.084666
-1490.808393
-1493.435747
-1495.966928
-1498.402147
-1500.741664
-1502.985731
-1505.134655
-1507.18877
-1509.148417
-1511.013987
-1512.785872
-1514.464528
-1516.050402
-1517.54399
-1518.945812
-1520.256413
-1521.476364
-1522.606265
-1523.646746
-1524.598466
-1525.462101
-1526.238368
-1526.927996
-1527.531755
-1528.050432
-1528.484846
-1528.835839
-1529.104278
-1529.291063
-1529.397101
-1529.423359
-1529.370785
-1529.240391
-1529.033174
-1528.750194
-1528.392505
-1527.961195
-1527.457377
-1526.882184
-1526.236758
-1525.522289
-1524.739958
-1523.891001
-1522.976641
-1521.998161
-1520.956832
-1519.853986
-1518.689102
-1517.46723
-1516.187953
-1514.852716
-1513.462984
-1512.020277
-1510.525732
-1508.981658
-1507.389201
-1505.749861
-1504.06499
-1502.335777
-1500.563025
-1498.746962
-1496.88721
-1494.981667
-1493.027671
-1491.017535
-1488.947849
-1486.787481
-1484.583632
-1482.11133
-1479.785176
-1476.900143
-1473.875618
-1470.824472
-1467.474601
-1461.215872
-1367.448946
-1100.82545
-850.012816
-613.0947087
-391.4639793
-186.2068201
1.996326459
172.6097354
325.2822914
459.8609401
576.3763688
675.0380156
756.2237468
820.4682156
868.4496157
900.975182
918.9656646
923.4390654
915.4939053
896.2922638
867.0428213
828.9841429
783.3683826
731.4456398
674.4490905
613.5810959
550.0003903
484.8104831
419.049346
353.6804975
289.5854982
227.557918
168.2987852
112.4135028
60.41021899
12.69960076
-30.40404864
-68.68039537
-101.9994962
-130.3171589
-153.6693296
-172.1656519
-185.9823235
-195.3543945
-200.5676485
-201.9502096
-199.8640237
-194.6963484
-186.8513922
-176.7422255
-164.7830847
-151.382175
-136.9350631
-121.8187443
-106.3864463
-90.9632153
-75.8423273
-61.28252726
-47.50611127
-34.69782842
-23.00457397
-12.53583668
-3.364840576
4.469684956
10.96117771
16.13244057
20.03245629
22.73290433
24.32447641
24.91308007
24.61602029
23.55824372
21.86872566
19.67706982
17.1103838
14.29048221
11.33146162
8.337673621
5.402118738
2.60526599
0.01429604618
-2.317247818
-4.349423261
-6.055500029
-7.421258024
-8.44401611
-9.131441997
-9.50019364
-9.574444124
-9.384342368
-8.964458501
-8.352259369
-7.586656849
-6.706663281
-5.750184683
-4.752975287
-3.747769172
-2.763598265
-1.825301145
-0.9532172923
-0.163060212
0.5340459899
1.131383405
1.626331849
2.01995828
2.316528018
2.522963482
2.64827331
2.702976581
2.698540892
2.64685444
2.559745854
2.448565027
2.323832552
2.194962785
2.070063395
1.955808515
1.857382524
1.778487973
1.721409307
1.687122993
1.675443672
1.685196837
1.714406386
1.76048814
1.820440544
1.891024758
1.968928919
2.05090995
2.13391225
2.215160326
2.29222498
2.363064918
2.426044846
2.479933839
2.523886312
2.557409667
2.580322596
2.592707244
2.59485864
2.58723407
2.570405999
2.545018299
2.511748976
2.47127978
2.424271463
2.371347281
2.313081066
2.249992299
2.182544362
2.111147484
2.036163402
1.95791244
1.876681273
1.792730859
1.706304341
1.617634658
1.526951017
1.43448459
1.340473712
1.245167843
1.148830814
1.051743778
0.9542067108
0.8565400033
0.7590849109
0.6622031438
0.5662761068
0.4717027794
0.378896905
0.2882829196
0.2002913737
0.1153528011
0.03389132902
-0.04368282755
-0.1169809297
-0.1856437041
-0.2493492402
-0.3078204658
-0.360831775
-0.4082152989
-0.4498654798
-0.4857427618
-0.5158758367
-0.5403625283
-0.5593692586
-0.5731293399
-0.5819400718
-0.5861588445
-0.5861982332
-0.5825208792
-0.5756333563
-0.566079711
-0.5544352574
-0.541299362
-0.5272886627
-0.5130298274
-0.4991523133
-0.4862807728
-0.4750273987
-0.4659842015
-0.4597146732
-0.4567457212
-0.4575594588
-0.4625848493
-0.4721898256
-0.4866734994
-0.506259187
-0.5310880727
-0.5612139423
-0.5965991815
-0.6371119481
-0.6825253316
-0.7325177037
-0.786675298
-0.8444963033
-0.9053967452
-0.968718169
-1.033736733
-1.099673769
-1.165707337
-1.230984864
-1.294636229
-1.355787201
-1.413572967
-1.467151174
-1.515714675
-1.558503166
-1.594813734
-1.624010244
-1.645530977
-1.658894796
-1.663705541
-1.65965492
-1.646523694
-1.624181575
-1.592586057
-1.551779981
-1.501888397
-1.443114172
-1.375732154
-1.300081371
-1.216554598
-1.125584373
-1.027624614
-0.923123884
-0.8124838703
-0.6959393733
-0.5734138564
-0.4437950756
)
;

boundaryField
{
    inlet
    {
        type            calculated;
        value           uniform 0;
    }
    outlet
    {
        type            calculated;
        value           uniform -0.3636576739;
    }
    wall
    {
        type            empty;
    }
}


// ************************************************************************* //
