/*--------------------------------*- C++ -*----------------------------------*\
  =========                 |
  \\      /  F ield         | OpenFOAM: The Open Source CFD Toolbox
   \\    /   O peration     | Website:  https://openfoam.org
    \\  /    A nd           | Version:  7
     \\/     M anipulation  |
\*---------------------------------------------------------------------------*/
FoamFile
{
    version     2.0;
    format      ascii;
    class       volScalarField;
    location    "0.000558243009";
    object      ddt0(rho,CH3COCH2);
}
// * * * * * * * * * * * * * * * * * * * * * * * * * * * * * * * * * * * * * //

dimensions      [1 -3 -1 0 0 0 0];

internalField   nonuniform List<scalar> 
1500
(
-3.238419626e-13
-9.813731401e-13
-1.482631588e-12
-1.507080652e-12
-1.159583808e-12
-7.197612377e-13
-3.750383624e-13
-1.687309237e-13
-6.729454415e-14
-2.50560818e-14
-1.020348293e-14
-6.210038755e-15
-5.934028496e-15
-6.713541243e-15
-7.649431806e-15
-8.464117564e-15
-9.075278511e-15
-9.459304524e-15
-9.611707391e-15
-9.535860892e-15
-9.239943074e-15
-8.735935675e-15
-8.039075917e-15
-7.167399034e-15
-6.141295176e-15
-4.983085085e-15
-3.716633442e-15
-2.367015516e-15
-9.602392047e-16
4.769894967e-16
1.91748206e-15
3.333796235e-15
4.698511243e-15
5.984578096e-15
7.165760188e-15
8.217167285e-15
9.115871246e-15
9.841568478e-15
1.037725488e-14
1.070986187e-14
1.083080206e-14
1.07363774e-14
1.042801147e-14
9.912280823e-15
9.200736785e-15
8.309525491e-15
7.258829403e-15
6.072166648e-15
4.775592517e-15
3.396851215e-15
1.964525559e-15
5.072257986e-16
-9.471489088e-16
-2.372053108e-15
-3.742828952e-15
-5.037128876e-15
-6.235231324e-15
-7.320259281e-15
-8.278314024e-15
-9.09853611e-15
-9.773103778e-15
-1.029717582e-14
-1.066878372e-14
-1.088867364e-14
-1.096009954e-14
-1.088856687e-14
-1.068153e-14
-1.034804861e-14
-9.898413049e-15
-9.343752752e-15
-8.695645142e-15
-7.965744964e-15
-7.165453882e-15
-6.305648834e-15
-5.396483961e-15
-4.447274543e-15
-3.466466318e-15
-2.461685172e-15
-1.439856674e-15
-4.073795548e-16
6.296670798e-16
1.665303861e-15
2.693440096e-15
3.707690918e-15
4.701237985e-15
5.666745243e-15
6.59633589e-15
7.481632197e-15
8.313855135e-15
9.083976877e-15
9.782916358e-15
1.040176609e-14
1.093203723e-14
1.136590923e-14
1.169647146e-14
1.19179438e-14
1.202586618e-14
1.201724739e-14
1.18906673e-14
1.164632786e-14
1.128605217e-14
1.081323359e-14
1.023273944e-14
9.55077681e-15
8.774729831e-15
7.91297881e-15
6.974712425e-15
5.969743171e-15
4.908334648e-15
3.801047493e-15
2.65860759e-15
1.491796953e-15
3.113657718e-16
-8.720395544e-16
-2.047937723e-15
-3.206070365e-15
-4.336462309e-15
-5.429489602e-15
-6.475958258e-15
-7.467194341e-15
-8.39514347e-15
-9.252475577e-15
-1.003268935e-14
-1.073020936e-14
-1.134046906e-14
-1.185997355e-14
-1.22863379e-14
-1.261829837e-14
-1.285569685e-14
-1.299944062e-14
-1.305144174e-14
-1.301454196e-14
-1.289242924e-14
-1.268955227e-14
-1.241103791e-14
-1.20626154e-14
-1.165054832e-14
-1.118157398e-14
-1.06628464e-14
-1.010187869e-14
-9.506477932e-15
-8.884666315e-15
-8.244582464e-15
-7.594357569e-15
-6.941964968e-15
-6.295042728e-15
-5.660693765e-15
-5.045270409e-15
-4.454154668e-15
-3.891546868e-15
-3.360277967e-15
-2.861661171e-15
-2.395398157e-15
-1.95955189e-15
-1.550596824e-15
-1.163550182e-15
-7.921857499e-16
-4.293223684e-16
-6.717741195e-17
3.02233575e-16
6.866711299e-16
1.093245692e-15
1.528016628e-15
1.995642721e-15
2.499107306e-15
3.039538759e-15
3.61613865e-15
4.226225137e-15
4.8653895e-15
5.527755745e-15
6.206325353e-15
6.893381695e-15
7.580923374e-15
8.261093898e-15
8.926573622e-15
9.570902699e-15
1.018871122e-14
1.07758387e-14
1.132933664e-14
1.184735783e-14
1.232894812e-14
1.277376427e-14
1.318174941e-14
1.355280159e-14
1.388647059e-14
1.41817148e-14
1.443674392e-14
1.464896166e-14
1.481501537e-14
1.49309455e-14
1.499242115e-14
1.499503899e-14
1.493465974e-14
1.480775491e-14
1.46117389e-14
1.434526381e-14
1.400845995e-14
1.360310924e-14
1.313274167e-14
1.260264469e-14
1.20197805e-14
1.139259961e-14
1.073074405e-14
1.004463577e-14
9.344949246e-15
8.641985225e-15
7.944972102e-15
7.261348489e-15
6.596097418e-15
5.951224062e-15
5.325480249e-15
4.714437237e-15
4.110990365e-15
3.506344821e-15
2.891472745e-15
2.258959435e-15
1.60507711e-15
9.318413814e-16
2.487358801e-16
-4.262470682e-16
-1.066605523e-15
-1.638670397e-15
-2.104489522e-15
-2.426286637e-15
-2.572318878e-15
-2.523717136e-15
-2.281648124e-15
-1.873918993e-15
-1.359990219e-15
-8.333000376e-16
-4.198680079e-16
-2.723495107e-16
-5.590739485e-16
-1.448086557e-15
-3.086821048e-15
-5.57869027e-15
-8.958538483e-15
-1.316948287e-14
-1.804409217e-14
-2.329304801e-14
-2.850434e-14
-3.315570029e-14
-3.664240048e-14
-3.832238097e-14
-3.758033838e-14
-3.391594802e-14
-2.705333818e-14
-1.707489254e-14
-4.432170127e-15
1.036075492e-14
1.957976415e-14
2.071421954e-14
2.174707202e-14
2.275856522e-14
2.376552583e-14
2.477001054e-14
2.576962201e-14
2.676236272e-14
2.774651479e-14
2.87209397e-14
2.968473639e-14
3.063698652e-14
3.157678727e-14
3.250306472e-14
3.341471212e-14
3.431061399e-14
3.51895477e-14
3.605027044e-14
3.689149322e-14
3.771191257e-14
3.851015395e-14
3.92847429e-14
4.003422882e-14
4.075705337e-14
4.145167289e-14
4.211632473e-14
4.27493368e-14
4.334886593e-14
4.391309147e-14
4.443997999e-14
4.492754594e-14
4.537361297e-14
4.577597299e-14
4.613231472e-14
4.644014764e-14
4.669696025e-14
4.690009332e-14
4.704671139e-14
4.713390416e-14
4.715860721e-14
4.711757571e-14
4.700741179e-14
4.682453222e-14
4.656522126e-14
4.622549345e-14
4.580117365e-14
4.528791015e-14
4.468105405e-14
4.397569469e-14
4.316671112e-14
4.224862188e-14
4.121568413e-14
4.006176741e-14
3.878045964e-14
3.73649226e-14
3.58079207e-14
3.41017806e-14
3.22383754e-14
3.020910879e-14
2.80048564e-14
2.561588775e-14
2.303196052e-14
2.024211853e-14
1.723480509e-14
1.399768059e-14
1.051772594e-14
6.781028913e-15
2.772843279e-15
-1.522454903e-15
-6.121543928e-15
-1.104206155e-14
-1.630277651e-14
-2.19235849e-14
-2.792570605e-14
-3.433154344e-14
-4.116501585e-14
-4.845138275e-14
-5.621753823e-14
-6.449196202e-14
-7.33049096e-14
-8.268842705e-14
-9.267648867e-14
-1.033051515e-13
-1.146124744e-13
-1.266389411e-13
-1.39427249e-13
-1.530226955e-13
-1.674731177e-13
-1.828290696e-13
-1.991440443e-13
-2.16474499e-13
-2.348800212e-13
-2.544235176e-13
-2.751712948e-13
-2.971932469e-13
-3.205630305e-13
-3.453581195e-13
-3.716600914e-13
-3.995546918e-13
-4.291320438e-13
-4.604867971e-13
-4.937182349e-13
-5.289305908e-13
-5.662329796e-13
-6.057398046e-13
-6.475707623e-13
-6.918509812e-13
-7.387113248e-13
-7.882884347e-13
-8.407248867e-13
-8.961693782e-13
-9.54776847e-13
-1.016708562e-12
-1.082132352e-12
-1.151222619e-12
-1.224160536e-12
-1.301134028e-12
-1.382338091e-12
-1.467974553e-12
-1.55825241e-12
-1.653387732e-12
-1.753603776e-12
-1.859130963e-12
-1.970206883e-12
-2.087076358e-12
-2.209991237e-12
-2.339210599e-12
-2.475000419e-12
-2.617633707e-12
-2.767390204e-12
-2.924556349e-12
-3.089425114e-12
-3.262295763e-12
-3.44347374e-12
-3.633270267e-12
-3.832002173e-12
-4.039991688e-12
-4.257565928e-12
-4.485056679e-12
-4.722800039e-12
-4.971135824e-12
-5.230407337e-12
-5.500960771e-12
-5.783144841e-12
-6.077310049e-12
-6.383808379e-12
-6.702992459e-12
-7.035215185e-12
-7.38082898e-12
-7.740185073e-12
-8.113632933e-12
-8.501519435e-12
-8.904188304e-12
-9.321979145e-12
-9.755226875e-12
-1.020426077e-11
-1.066940378e-11
-1.115097169e-11
-1.16492722e-11
-1.216460426e-11
-1.269725707e-11
-1.324750932e-11
-1.381562839e-11
-1.440186931e-11
-1.500647417e-11
-1.562967122e-11
-1.627167387e-11
-1.693268016e-11
-1.761287177e-11
-1.831241339e-11
-1.903145197e-11
-1.977011578e-11
-2.052851416e-11
-2.13067365e-11
-2.210485178e-11
-2.2922908e-11
-2.376093175e-11
-2.461892752e-11
-2.549687748e-11
-2.639474117e-11
-2.731245489e-11
-2.824993178e-11
-2.920706155e-11
-3.018371033e-11
-3.117972057e-11
-3.219491139e-11
-3.322907826e-11
-3.428199362e-11
-3.535340681e-11
-3.644304469e-11
-3.755061207e-11
-3.8675792e-11
-3.981824677e-11
-4.097761827e-11
-4.215352917e-11
-4.334558363e-11
-4.455336825e-11
-4.577645336e-11
-4.70143942e-11
-4.826673212e-11
-4.953299603e-11
-5.081270412e-11
-5.210536501e-11
-5.341048032e-11
-5.472754532e-11
-5.605605191e-11
-5.739549029e-11
-5.874535086e-11
-6.010512677e-11
-6.147431642e-11
-6.285242521e-11
-6.423896933e-11
-6.563347695e-11
-6.703549243e-11
-6.844457811e-11
-6.986031784e-11
-7.128232045e-11
-7.27102221e-11
-7.414369023e-11
-7.558242669e-11
-7.70261717e-11
-7.847470728e-11
-7.992786075e-11
-8.138550911e-11
-8.284758287e-11
-8.431407016e-11
-8.578502078e-11
-8.72605511e-11
-8.874084826e-11
-9.022617421e-11
-9.171687162e-11
-9.321336815e-11
-9.471618105e-11
-9.622592319e-11
-9.774330725e-11
-9.926915218e-11
-1.00804388e-10
-1.023500619e-10
-1.03907344e-10
-1.054775328e-10
-1.07062062e-10
-1.086625062e-10
-1.102805879e-10
-1.119181832e-10
-1.135773291e-10
-1.152602305e-10
-1.169692664e-10
-1.187069973e-10
-1.204761737e-10
-1.222797413e-10
-1.241208502e-10
-1.260028629e-10
-1.279293607e-10
-1.299041528e-10
-1.319312846e-10
-1.340150459e-10
-1.361599783e-10
-1.383708863e-10
-1.406528424e-10
-1.430111951e-10
-1.454515749e-10
-1.479798503e-10
-1.506026833e-10
-1.53307075e-10
-1.561211988e-10
-1.59066873e-10
-1.621765091e-10
-1.654059221e-10
-1.687628041e-10
-1.722558156e-10
-1.758939742e-10
-1.796867646e-10
-1.8364413e-10
-1.877764939e-10
-1.920947806e-10
-1.966104314e-10
-2.013353273e-10
-2.062874035e-10
-2.115605366e-10
-2.170930669e-10
-2.228979939e-10
-2.289902344e-10
-2.353645874e-10
-2.42040426e-10
-2.490479632e-10
-2.564037246e-10
-2.64124726e-10
-2.722287359e-10
-2.807342043e-10
-2.896602648e-10
-2.990267596e-10
-3.088542611e-10
-3.191640957e-10
-3.299783796e-10
-3.413200388e-10
-3.532128459e-10
-3.656814532e-10
-3.787514218e-10
-3.924492617e-10
-4.068024716e-10
-4.218395755e-10
-4.375901719e-10
-4.540849747e-10
-4.713558704e-10
-4.894359625e-10
-5.083596363e-10
-5.281626144e-10
-5.488820229e-10
-5.705564638e-10
-5.932260854e-10
-6.169326686e-10
-6.417197103e-10
-6.676325215e-10
-6.947183274e-10
-7.230263883e-10
-7.526081177e-10
-7.835172286e-10
-8.158098874e-10
-8.495448895e-10
-8.84783868e-10
-9.215915137e-10
-9.600358562e-10
-1.00018857e-09
-1.042125353e-09
-1.08592636e-09
-1.131676748e-09
-1.179467305e-09
-1.229395246e-09
-1.281565165e-09
-1.336090223e-09
-1.393093612e-09
-1.452710374e-09
-1.51508967e-09
-1.580397614e-09
-1.64882083e-09
-1.720570909e-09
-1.795890023e-09
-1.875057987e-09
-1.958401151e-09
-2.046303648e-09
-2.139221529e-09
-2.237700686e-09
-2.342399426e-09
-2.454117031e-09
-2.573829837e-09
-2.702736827e-09
-2.842317264e-09
-2.994403532e-09
-3.161273196e-09
-3.345765362e-09
-3.551427708e-09
-3.782702287e-09
-4.045160292e-09
-4.345798608e-09
-4.693414418e-09
-5.099078313e-09
-5.576731683e-09
-6.143940944e-09
-6.822849595e-09
-7.641379774e-09
-8.634748325e-09
-9.847379541e-09
-1.133531752e-08
-1.316926828e-08
-1.543843502e-08
-1.825535218e-08
-2.176197689e-08
-2.613736305e-08
-3.160732651e-08
-3.845661441e-08
-4.704422336e-08
-5.782267491e-08
-7.136226261e-08
-8.838154312e-08
-1.097856636e-07
-1.367145234e-07
-1.70603263e-07
-2.132582088e-07
-2.669521673e-07
-3.345439469e-07
-4.196281731e-07
-5.267229653e-07
-6.615048864e-07
-8.311028592e-07
-1.044465548e-06
-1.312820183e-06
-1.650245022e-06
-2.074382831e-06
-2.607329103e-06
-3.276736326e-06
-4.117184915e-06
-5.171882383e-06
-6.494765622e-06
-8.153096632e-06
-1.023066024e-05
-1.283169344e-05
-1.608569986e-05
-2.015332958e-05
-2.523353372e-05
-3.157223352e-05
-3.947277476e-05
-4.930846578e-05
-6.153752005e-05
-7.672073402e-05
-9.554222383e-05
-0.0001188335055
-0.0001476011253
-0.0001830579607
-0.0002266577494
-0.0002801330762
-0.0003455350088
-0.0004252734933
-0.0005221559612
-0.0006394207039
-0.0007807615532
-0.0009503357448
-0.001152750626
-0.001393018529
-0.001676470778
-0.002008620174
-0.00239496152
-0.00284070088
-0.003350406939
-0.003927582028
-0.004574156212
-0.005289915062
-0.006071880104
-0.006913668091
-0.007804866215
-0.008730463637
-0.009670389199
-0.01059920665
-0.01148601273
-0.01229458143
-0.01298372407
-0.01350783567
-0.01381747129
-0.01385970508
-0.0135782277
-0.01291259799
-0.01179728185
-0.01016014392
-0.007921199024
-0.004991855163
-0.001275658302
0.003325458139
0.008881401723
0.01607916357
0.02439061752
0.03845414628
0.05051117766
0.05196865872
0.01498192465
0.0004203219715
0.03528776205
0.2416329783
0.6212938996
0.7941746303
0.3113380004
-0.4629900013
-0.7937377303
-0.7100751559
-0.5124369822
-0.3417550333
-0.2103462975
-0.1307379048
-0.08049919976
-0.0495023938
-0.02981698992
-0.0183147892
-0.01132341454
-0.007077789057
-0.004378640629
-0.002789542538
-0.001805736308
-0.001191587461
-0.0008042332927
-0.0005569600761
-0.0003963257334
-0.0002836450045
-0.0002102653015
-0.0001570668674
-0.0001194592451
-9.157604636e-05
-7.054715668e-05
-5.453633514e-05
-4.229926534e-05
-3.266875325e-05
-2.477271837e-05
-1.873331151e-05
-1.40760721e-05
-1.04950986e-05
-7.793841056e-06
-5.788911853e-06
-4.315609025e-06
-3.234342596e-06
-2.415706579e-06
-1.766131164e-06
-1.286691996e-06
-9.452727281e-07
-6.909387206e-07
-5.029443008e-07
-3.649114344e-07
-2.640886006e-07
-1.907367228e-07
-1.374540767e-07
-9.894050006e-08
-7.111391531e-08
-5.104278783e-08
-3.658789942e-08
-2.619273915e-08
-1.872740402e-08
-1.337327236e-08
-9.538271907e-09
-6.794864154e-09
-4.8347909e-09
-3.436098341e-09
-2.439209698e-09
-1.729548e-09
-1.224954401e-09
-8.66591987e-10
-6.123790607e-10
-4.32255362e-10
-3.047744058e-10
-2.146538465e-10
-1.510169082e-10
-1.061315992e-10
-7.450797493e-11
-5.225260363e-11
-3.66075248e-11
-2.562138279e-11
-1.791513011e-11
-1.251530765e-11
-8.735553858e-12
-6.09249157e-12
-4.246089781e-12
-2.957428801e-12
-2.058825717e-12
-1.432727851e-12
-9.968185331e-13
-6.935191862e-13
-4.825988475e-13
-3.359775014e-13
-2.340763509e-13
-1.632575868e-13
-1.140305559e-13
-7.979639515e-14
-5.59705318e-14
-3.937002414e-14
-2.778630286e-14
-1.968754261e-14
-1.401156086e-14
-1.002186098e-14
-7.207667407e-15
-5.21457401e-15
-3.796471829e-15
-2.782251805e-15
-2.052755794e-15
-1.524829065e-15
-1.140289396e-15
-8.58297423e-16
-6.500784047e-16
-4.952688248e-16
-3.793854172e-16
-2.92069504e-16
-2.258669904e-16
-1.753786406e-16
-1.366665476e-16
-1.068381041e-16
-8.375317931e-17
-6.581701883e-17
-5.183297219e-17
-4.089712497e-17
-3.232241211e-17
-2.558357635e-17
-2.027695038e-17
-1.609084806e-17
-1.278360082e-17
-1.016714402e-17
-8.094663281e-18
-6.451233837e-18
-5.146683513e-18
-4.11012034e-18
-3.285715222e-18
-2.62943727e-18
-2.106516809e-18
-1.689467257e-18
-1.356538403e-18
-1.090504081e-18
-8.777100511e-19
-7.073249931e-19
-5.707504507e-19
-4.611554933e-19
-3.731092869e-19
-3.02290843e-19
-2.452594841e-19
-1.992732487e-19
-1.621451195e-19
-1.321291358e-19
-1.078301335e-19
-8.813216245e-20
-7.214168945e-20
-5.914250208e-20
-4.855988103e-20
-3.993211558e-20
-3.288784177e-20
-2.712799895e-20
-2.241145061e-20
-1.854351685e-20
-1.536681891e-20
-1.275396354e-20
-1.060169139e-20
-8.826191391e-21
-7.359344432e-21
-6.14570939e-21
-5.140100599e-21
-4.305639838e-21
-3.612186996e-21
-3.035074806e-21
-2.554087055e-21
-2.152632174e-21
-1.817074714e-21
-1.536193204e-21
-1.300740112e-21
-1.103084173e-21
-9.369194694e-22
-7.970280547e-22
-6.790866603e-22
-5.795082579e-22
-4.953129371e-22
-4.240217725e-22
-3.635699612e-22
-3.122353433e-22
-2.685797053e-22
-2.314004736e-22
-1.996906232e-22
-1.726059903e-22
-1.494379824e-22
-1.295909938e-22
-1.125638059e-22
-9.793404717e-23
-8.534539745e-23
-7.449680065e-23
-6.513366616e-23
-5.704037465e-23
-5.003409091e-23
-4.395957477e-23
-3.868485299e-23
-3.409760301e-23
-3.010209355e-23
-2.661662283e-23
-2.357140072e-23
-2.090671443e-23
-1.857141982e-23
-1.652163987e-23
-1.471969616e-23
-1.313320088e-23
-1.173425294e-23
-1.049880915e-23
-9.406108569e-24
-8.43820609e-24
-7.579572513e-24
-6.816748355e-24
-6.138050798e-24
-5.53333129e-24
-4.993764361e-24
-4.511654549e-24
-4.080284882e-24
-3.693796464e-24
-3.34706265e-24
-3.035584794e-24
-2.755423982e-24
-2.503116393e-24
-2.275622511e-24
-2.070257969e-24
-1.884658962e-24
-1.716737348e-24
-1.564648444e-24
-1.426759042e-24
-1.301616225e-24
-1.187934794e-24
-1.08457109e-24
-9.905055793e-25
-9.048291265e-25
-8.267317581e-25
-7.554913586e-25
-6.904600164e-25
-6.310552784e-25
-5.767558285e-25
-5.270937317e-25
-4.816486135e-25
-4.400425427e-25
-4.019323727e-25
-3.670100012e-25
-3.34995707e-25
-3.056380662e-25
-2.78708479e-25
-2.539994147e-25
-2.313233582e-25
-2.105095721e-25
-1.914020235e-25
-1.738598399e-25
-1.577536592e-25
-1.429662158e-25
-1.2938945e-25
-1.169257339e-25
-1.054851504e-25
-9.498605124e-26
-8.535255227e-26
-7.651587131e-26
-6.841275429e-26
-6.098526114e-26
-5.41797805e-26
-4.794792964e-26
-4.224405227e-26
-3.702675082e-26
-3.225806065e-26
-2.790275022e-26
-2.392816206e-26
-2.030444714e-26
-1.700383476e-26
-1.400141815e-26
-1.1273531e-26
-8.798457686e-27
-6.556506415e-27
-4.528868306e-27
-2.6985956e-27
-1.049967132e-27
4.31809196e-28
1.759865892e-27
2.946757779e-27
4.003959254e-27
4.942140048e-27
5.771188037e-27
6.500301375e-27
7.137692214e-27
7.691117212e-27
8.167731217e-27
8.574487387e-27
8.917164823e-27
9.201626281e-27
9.43297116e-27
9.616160838e-27
9.755475448e-27
9.855062139e-27
9.918645596e-27
9.949741842e-27
9.951679748e-27
9.92744438e-27
9.879684695e-27
9.810998775e-27
9.723766003e-27
9.619984939e-27
9.50159734e-27
9.370452564e-27
9.228090926e-27
9.07614605e-27
8.915939135e-27
8.748646957e-27
8.575477664e-27
8.397434391e-27
8.215515091e-27
8.030608853e-27
7.843475478e-27
7.654867509e-27
7.46537652e-27
7.275586386e-27
7.08602434e-27
6.897216002e-27
6.709539132e-27
6.52336175e-27
6.339010799e-27
6.156854466e-27
5.977084382e-27
5.799908537e-27
5.625552304e-27
5.454182023e-27
5.2859496e-27
5.120980149e-27
4.959350309e-27
4.801200964e-27
4.646564405e-27
4.495472806e-27
4.347955939e-27
4.204053359e-27
4.063766726e-27
3.927122133e-27
3.794092954e-27
3.664637508e-27
3.538749206e-27
3.416403767e-27
3.297551111e-27
3.182164296e-27
3.070214837e-27
2.96161205e-27
2.856307744e-27
2.754247937e-27
2.655382102e-27
2.559627155e-27
2.466921851e-27
2.377202461e-27
2.290403063e-27
2.206448061e-27
2.125283557e-27
2.046834593e-27
1.971019575e-27
1.897798554e-27
1.827082974e-27
1.758800699e-27
1.69289252e-27
1.629281362e-27
1.567894206e-27
1.508686704e-27
1.451583702e-27
1.396520108e-27
1.343439363e-27
1.292265407e-27
1.242952169e-27
1.195428919e-27
1.14965161e-27
1.105557734e-27
1.063098532e-27
1.022204179e-27
9.828253541e-28
9.44918634e-28
9.084268961e-28
8.733115203e-28
8.395222989e-28
8.0701225e-28
7.757337356e-28
7.456429215e-28
7.166949598e-28
6.888542841e-28
6.620794641e-28
6.363295576e-28
6.115718085e-28
5.877670489e-28
5.648865218e-28
5.428921211e-28
5.217525351e-28
5.014345169e-28
4.819073105e-28
4.631419563e-28
4.451072375e-28
4.277782608e-28
4.111271566e-28
3.951301872e-28
3.797618437e-28
3.650022827e-28
3.508217075e-28
3.371954096e-28
3.241060738e-28
3.115317508e-28
2.994555924e-28
2.878576776e-28
2.767194033e-28
2.660196862e-28
2.557425634e-28
2.458722954e-28
2.36392186e-28
2.27288342e-28
2.185467773e-28
2.101514034e-28
2.020890119e-28
1.943449662e-28
1.869069585e-28
1.797647601e-28
1.729057234e-28
1.663193474e-28
1.599921687e-28
1.539158289e-28
1.480803249e-28
1.424755939e-28
1.370929452e-28
1.319239534e-28
1.269585535e-28
1.221892265e-28
1.176078081e-28
1.132069512e-28
1.089803407e-28
1.049196395e-28
1.01018413e-28
9.726972271e-29
9.366794637e-29
9.020768073e-29
8.688233191e-29
8.368722651e-29
8.061629818e-29
7.766591511e-29
7.483005279e-29
7.21050819e-29
6.948595498e-29
6.696752674e-29
6.45468286e-29
6.221937914e-29
5.998174886e-29
5.783013187e-29
5.57616074e-29
5.377211253e-29
5.185854738e-29
5.001850645e-29
4.824827658e-29
4.65459599e-29
4.490874661e-29
4.333386028e-29
4.181812204e-29
4.035904302e-29
3.895481007e-29
3.760369028e-29
3.630281588e-29
3.505053544e-29
3.384470644e-29
3.268384615e-29
3.156593509e-29
3.048951123e-29
2.945297427e-29
2.845466772e-29
2.749295621e-29
2.656634834e-29
2.56739385e-29
2.481391166e-29
2.39851412e-29
2.31861352e-29
2.241565776e-29
2.167290179e-29
2.095706151e-29
2.026689469e-29
1.960155385e-29
1.895951994e-29
1.834012968e-29
1.774273693e-29
1.716641285e-29
1.66101732e-29
1.607344478e-29
1.55554878e-29
1.505562429e-29
1.457318303e-29
1.41073987e-29
1.36576153e-29
1.322338399e-29
1.280412132e-29
1.239898329e-29
1.200774768e-29
1.162968628e-29
1.126439871e-29
1.091131202e-29
1.057020343e-29
1.024057709e-29
9.921970872e-30
9.613907932e-30
9.316062979e-30
9.028024664e-30
8.749461671e-30
8.480075879e-30
8.219671635e-30
7.9678682e-30
7.724222658e-30
7.48850743e-30
7.260426813e-30
7.039758313e-30
6.826135432e-30
6.619330097e-30
6.41918423e-30
6.225456267e-30
6.037941175e-30
5.856425256e-30
5.680717833e-30
5.510619472e-30
5.345973931e-30
5.186503564e-30
5.032032905e-30
4.882435136e-30
4.737521036e-30
4.597218205e-30
4.461298614e-30
4.32974468e-30
4.202347348e-30
4.079000035e-30
3.959597813e-30
3.843911099e-30
3.731903822e-30
3.623505635e-30
3.518573698e-30
3.417064978e-30
3.318902441e-30
3.224017092e-30
3.132353993e-30
3.043943481e-30
2.958636125e-30
2.876439719e-30
2.797327825e-30
2.721223248e-30
2.648050938e-30
2.577538739e-30
2.509191007e-30
2.442257335e-30
2.375138893e-30
2.305523961e-30
2.229842804e-30
2.14335886e-30
1.293702872e-30
1.129812338e-30
7.384733183e-31
4.863531627e-31
3.220978261e-31
2.142854538e-31
1.436011865e-31
9.729763981e-32
6.70270093e-32
4.715771341e-32
3.383305005e-32
2.470933913e-32
1.814513516e-32
1.308652032e-32
8.828513642e-33
4.896654673e-33
1.036998929e-33
-2.868311234e-33
-6.98029002e-33
-1.13816471e-32
-1.608566963e-32
-2.117593288e-32
-2.663037938e-32
-3.249844594e-32
-3.878973896e-32
-4.552643129e-32
-5.27289897e-32
-6.041823587e-32
-6.861965175e-32
-7.735513941e-32
-8.66442487e-32
-9.650922162e-32
-1.069666392e-31
-1.180333256e-31
-1.297206528e-31
-1.420420876e-31
-1.549848391e-31
-1.685520217e-31
-1.827176489e-31
-1.974578826e-31
-2.127312053e-31
-2.284849326e-31
-2.446513976e-31
-2.611462574e-31
-2.778693539e-31
-2.947103193e-31
-3.115310897e-31
-3.281972934e-31
-3.4452751e-31
-3.603680802e-31
-3.755311275e-31
-3.898381296e-31
-4.030759512e-31
-4.150906362e-31
-4.256683019e-31
-4.346641456e-31
-4.419025261e-31
-4.472634517e-31
-4.506397182e-31
-4.519334241e-31
-4.511042917e-31
-4.481333505e-31
-4.43029615e-31
-4.358497843e-31
-4.266641942e-31
-4.155958454e-31
-4.027831774e-31
-3.883921366e-31
-3.72609669e-31
-3.556383569e-31
-3.376897712e-31
-3.189846269e-31
-2.997431501e-31
-2.801827143e-31
-2.605067392e-31
-2.409204973e-31
-2.216003996e-31
-2.027122166e-31
-1.844022199e-31
-1.667919031e-31
-1.499842494e-31
-1.340645431e-31
-1.190904268e-31
-1.051039028e-31
-9.213623216e-32
-8.018861683e-32
-6.925416221e-32
-5.931668403e-32
-5.03406201e-32
-4.22898606e-32
-3.511771533e-32
-2.877198608e-32
-2.319710371e-32
-1.833656853e-32
-1.413098844e-32
-1.052205645e-32
-7.452216698e-33
-4.865761938e-33
-2.709314104e-33
-9.31977774e-34
5.136801974e-34
1.671767857e-33
2.583108319e-33
3.284641015e-33
3.809982837e-33
4.189120426e-33
4.448556755e-33
4.611796424e-33
4.699219543e-33
4.72768191e-33
4.71244904e-33
4.665358131e-33
4.596626214e-33
4.514255254e-33
4.42438492e-33
4.332011335e-33
4.240331879e-33
4.151850356e-33
4.067958286e-33
3.989254072e-33
3.915971732e-33
3.847755579e-33
3.783901141e-33
3.723508674e-33
3.665649423e-33
3.609264756e-33
3.55320661e-33
3.496452642e-33
3.438192237e-33
3.377415775e-33
3.313443807e-33
3.245655182e-33
3.173491975e-33
3.096628155e-33
3.01467841e-33
2.927537286e-33
2.835210258e-33
2.737666385e-33
2.635075846e-33
2.527468965e-33
2.415311224e-33
2.299077222e-33
2.178732819e-33
2.055176115e-33
1.928703595e-33
1.799433247e-33
1.668469305e-33
1.535857673e-33
1.402640655e-33
1.268928695e-33
1.135411415e-33
1.002357831e-33
8.705898417e-34
7.400565495e-34
6.116300202e-34
4.853859789e-34
3.617991449e-34
2.411625301e-34
1.232389815e-34
8.937355136e-36
-1.020029136e-34
-2.091481025e-34
-3.126883173e-34
-4.122968736e-34
-5.077716503e-34
-5.993265263e-34
-6.865935151e-34
-7.699307884e-34
-8.490866719e-34
-9.238625942e-34
-9.94364393e-34
-1.060767981e-33
-1.122882642e-33
-1.181156367e-33
-1.2350793e-33
-1.285393287e-33
-1.332001834e-33
-1.374714824e-33
-1.414271624e-33
-1.450618838e-33
-1.484036736e-33
-1.514799965e-33
-1.543366253e-33
-1.569896153e-33
-1.594747565e-33
-1.61840457e-33
-1.641205092e-33
-1.663121323e-33
-1.685016269e-33
-1.706845458e-33
-1.728972621e-33
-1.751834476e-33
-1.775468843e-33
-1.800296166e-33
-1.826189523e-33
-1.853763142e-33
-1.882645741e-33
-1.913027935e-33
-1.944848711e-33
-1.97829452e-33
-2.013085052e-33
-2.04900135e-33
-2.085907915e-33
-2.123578339e-33
-2.161600847e-33
-2.199655555e-33
-2.237268738e-33
-2.27400211e-33
-2.309311585e-33
-2.342708318e-33
-2.37360465e-33
-2.401250311e-33
-2.425213027e-33
-2.444653696e-33
-2.459124622e-33
-2.467858653e-33
-2.47027836e-33
-2.465802165e-33
-2.453702932e-33
-2.433588027e-33
-2.404950425e-33
-2.367312366e-33
-2.320384385e-33
-2.263838141e-33
-2.197463226e-33
-2.121158624e-33
-2.034867391e-33
-1.93867709e-33
-1.832678859e-33
-1.717123685e-33
-1.592355981e-33
-1.458798236e-33
-1.316960728e-33
-1.167407317e-33
-1.010703905e-33
-8.478437798e-34
-6.793932448e-34
-5.062859775e-34
-3.296048614e-34
-1.500125889e-34
3.123235538e-35
2.132170789e-34
3.950488115e-34
5.751801557e-34
7.531201014e-34
9.275515437e-34
1.097582678e-33
1.262078216e-33
1.42037915e-33
1.572302716e-33
)
;

boundaryField
{
    inlet
    {
        type            calculated;
        value           uniform 0;
    }
    outlet
    {
        type            calculated;
        value           uniform 1.597791828e-33;
    }
    wall
    {
        type            empty;
    }
}


// ************************************************************************* //
