/*--------------------------------*- C++ -*----------------------------------*\
  =========                 |
  \\      /  F ield         | OpenFOAM: The Open Source CFD Toolbox
   \\    /   O peration     | Website:  https://openfoam.org
    \\  /    A nd           | Version:  7
     \\/     M anipulation  |
\*---------------------------------------------------------------------------*/
FoamFile
{
    version     2.0;
    format      ascii;
    class       volScalarField;
    location    "0.000558243009";
    object      ddt0(rho,C7H16);
}
// * * * * * * * * * * * * * * * * * * * * * * * * * * * * * * * * * * * * * //

dimensions      [1 -3 -1 0 0 0 0];

internalField   nonuniform List<scalar> 
1500
(
-589.7650311
-1765.197652
-2640.706332
-2656.126659
-2021.273957
-1240.44206
-638.8388396
-283.986928
-111.9134759
-41.28974155
-16.89937318
-10.57971731
-10.34888692
-11.8048945
-13.47874539
-14.92151824
-16.00067045
-16.67813551
-16.94692579
-16.81321306
-16.29146681
-15.40282338
-14.17415054
-12.63724762
-10.82806573
-8.785959843
-6.553007153
-4.173419254
-1.69305217
0.841007239
3.380821359
5.878005183
8.284211591
10.55174898
12.6343581
14.48815357
16.07270948
17.35222742
18.2967265
18.88316473
19.09640124
18.92991577
18.38621832
17.47690437
16.22234073
14.65099556
12.79845372
10.70618133
8.42011796
5.989180996
3.46376642
0.894318584
-1.669971932
-4.182301321
-6.599193932
-8.881247516
-10.99368988
-12.90676419
-14.59596483
-16.0421449
-17.2315134
-18.15553453
-18.8107375
-19.19843788
-19.32437293
-19.19824963
-18.83321118
-18.24523123
-17.45245329
-16.47450026
-15.33178498
-14.04485659
-12.63381802
-11.11784699
-9.514846843
-7.841241898
-6.111923303
-4.340336695
-2.538692932
-0.7182739786
1.11020174
2.93619168
4.748956972
6.537240096
8.289019267
9.991359861
11.63037385
13.19128995
14.6586294
16.01647471
17.24881454
18.3399436
19.2748947
20.03987902
20.62271204
21.01320249
21.20348655
21.18829028
20.96510975
20.53430102
19.89907852
19.06542527
18.04192312
16.83951614
15.47122372
13.95182163
12.29751097
10.52559269
8.654163137
6.701842369
4.687541797
2.630271808
0.5489866647
-1.537542365
-3.610835105
-5.65280443
-7.645862562
-9.573040952
-11.41812919
-13.16583373
-14.80195346
-16.3135643
-17.68920343
-18.91904052
-19.99502401
-20.91099182
-21.66273899
-22.24803731
-22.66660802
-22.92005082
-23.01173695
-22.94667685
-22.73137298
-22.3736691
-21.88260464
-21.26828117
-20.54174234
-19.71486707
-18.80026907
-17.81119509
-16.76141026
-15.66505894
-14.53649081
-13.39004243
-12.23977203
-11.09914676
-9.980690137
-8.895602314
-7.853372648
-6.861406927
-5.924696605
-5.045557057
-4.223462308
-3.454997029
-2.733945169
-2.051521291
-1.396747602
-0.7569626
-0.1184442913
0.5328851571
1.210708814
1.927563478
2.694132762
3.518630852
4.406317802
5.359183138
6.375819101
7.451497183
8.57844411
9.746299601
10.94272415
12.15411214
13.36635586
14.56560307
15.73894811
16.87500124
17.96429448
18.99949224
19.97539582
20.88874835
21.7378675
22.52214809
23.24148981
23.89571294
24.48402369
25.00458549
25.45424179
25.82841493
26.12119364
26.32559663
26.43398783
26.43860349
26.33214541
26.10839229
25.76278535
25.29294802
24.69911003
23.98441323
23.1550815
22.22043745
21.19275655
20.08693834
18.91998329
17.71026689
16.47660989
15.23717417
14.00823081
12.80289526
11.62995337
10.4929406
9.389656206
8.312291618
7.248320222
6.182235377
5.098119552
3.982899485
2.830002472
1.642982391
0.4385603523
-0.7515403567
-1.880592661
-2.889232676
-3.710544791
-4.277923535
-4.535401256
-4.449708775
-4.02290317
-3.304012815
-2.39787585
-1.469238536
-0.7402930698
-0.4801948391
-0.9857349461
-2.553203477
-5.442549179
-9.83610507
-15.79530692
-23.21986047
-31.81455246
-41.06923901
-50.25733628
-58.45737507
-64.60064847
-67.54630815
-66.18146462
-59.54503253
-46.95848119
-28.18397104
-3.487423872
26.24946105
43.64664588
45.8521978
48.05046491
50.24188094
52.43394778
54.63011917
56.8302564
59.03467303
61.24285736
63.45424686
65.66815792
67.88373537
70.10020723
72.31661455
74.53204986
76.74567877
78.95655033
81.16374324
83.36631965
85.56338433
87.75398956
89.93708908
92.11176138
94.276983
96.43184978
98.57517113
100.7060219
102.8232883
104.9260161
107.0130046
109.0832735
111.135652
113.1690684
115.1824345
117.1745228
119.1442569
121.0905011
123.0120236
124.9076897
126.7763376
128.616749
130.427715
132.2079983
133.9564468
135.6717737
137.3527223
138.9981137
140.6066613
142.1770623
143.7081179
145.1985025
146.6469724
148.0521811
149.412905
150.727832
151.9956564
153.2150561
154.3847154
155.5033515
156.5696684
157.5822809
158.539945
159.4412713
160.2849969
161.0697417
161.7942712
162.4572076
163.0572238
163.5930629
164.0633283
164.466757
164.8020303
165.0678969
165.2629538
165.3860185
165.4356846
165.4107698
165.3099484
165.1319934
164.875604
164.5395492
164.1226016
163.6234497
163.0410287
162.3739769
161.6212089
160.7814499
159.8535585
158.8364407
157.7288937
156.529798
155.2380708
153.8525862
152.3722887
150.7961266
149.1230127
147.3519971
145.4820436
143.5121929
141.4414795
139.2689531
136.9937756
134.6149562
132.1317524
129.5432479
126.8486229
124.0471887
121.1381405
118.1207444
114.9943294
111.758218
108.4117605
104.9544112
101.3855542
97.70468768
93.911276
90.0049457
85.98511582
81.85151656
77.60374755
73.24151768
68.76452665
64.17253826
59.46537807
54.64281866
49.70485875
44.65131827
39.48225652
34.19761093
28.79748968
23.28201045
17.65130413
11.905597
6.045057611
0.07004230726
-6.01904927
-12.22191167
-18.53804023
-24.96693458
-31.5081313
-38.16093142
-44.92470969
-51.79871822
-58.78227721
-65.87447415
-73.07451634
-80.38136768
-87.79408391
-95.31165205
-102.9329138
-110.6567369
-118.48183
-126.4069867
-134.4308011
-142.5519106
-150.7688051
-159.0799447
-167.4837938
-175.9786268
-184.5627456
-193.2343767
-201.9916257
-210.8326652
-219.7554074
-228.7578371
-237.8379218
-246.9933748
-256.2220205
-265.5215041
-274.8894647
-284.3235012
-293.8210082
-303.3794805
-312.9962671
-322.6686244
-332.3937568
-342.1688786
-351.9910102
-361.8571682
-371.7643693
-381.709413
-391.6891331
-401.7003026
-411.7395931
-421.8035585
-431.8888257
-441.9917937
-452.1089386
-462.2365509
-472.3709193
-482.5083065
-492.6447992
-502.7765275
-512.8994609
-523.0095808
-533.1028047
-543.1749263
-553.2217249
-563.2389259
-573.2221799
-583.1670452
-593.0690923
-602.9237229
-612.7264805
-622.4726016
-632.1574276
-641.7762512
-651.3242299
-660.7965048
-670.1882384
-679.4943664
-688.7100295
-697.8300599
-706.8494557
-715.7630263
-724.5655608
-733.2519351
-741.8168511
-750.2550182
-758.561066
-766.7296732
-774.7554568
-782.6329665
-790.3567488
-797.9213391
-805.3212422
-812.5508937
-819.6047844
-826.4773794
-833.163018
-839.6561494
-845.9512157
-852.0425614
-857.9246326
-863.5917555
-869.038342
-874.2587802
-879.2474587
-883.9988164
-888.5072658
-892.7672119
-896.7731275
-900.5195091
-904.0008341
-907.2116268
-910.1465101
-912.800056
-915.1668524
-917.2417038
-919.01924
-920.4942708
-921.6616974
-922.5163932
-923.053303
-923.2674979
-923.1541246
-922.7082816
-921.9253291
-920.8006181
-919.3295452
-917.507822
-915.3309498
-912.7945489
-907.869227
-902.6958225
-898.7749599
-898.6463228
-897.2533468
-894.5759337
-890.5924937
-885.2759804
-878.6021572
-870.545256
-861.0782929
-850.1742118
-837.8079038
-823.946397
-809.0592323
-799.6050888
-789.8216759
-779.7443327
-769.4125072
-757.3909935
-743.9491974
-730.0383363
-715.6532449
-700.7886809
-685.439651
-669.6014481
-653.2693661
-636.4390679
-619.1063816
-601.2671697
-582.9177894
-564.0545324
-544.673994
-524.7730867
-504.3487989
-483.3983579
-461.9193041
-439.9092696
-417.3662428
-394.2882803
-370.6738696
-346.5215277
-321.8301537
-296.5988126
-270.826797
-244.5137168
-217.6593099
-190.2636833
-162.3271141
-133.8501846
-104.8336283
-75.27858165
-45.1863119
-14.55842251
16.60322832
48.29658489
80.51916547
113.2684291
146.541404
180.3349243
214.6454493
249.4693505
284.8025135
320.6406735
356.9792003
393.8132836
431.1377623
468.9472045
507.2358796
545.9977923
585.2266918
624.9159808
665.0588553
705.6481998
746.6766009
788.1364775
830.0197598
872.3183895
915.0238481
958.1274555
1001.620295
1045.493155
1089.736643
1134.341149
1179.296859
1224.593782
1270.221738
1316.170421
1362.4294
1408.988095
1455.835896
1502.962173
1550.35623
1598.00745
1645.905265
1694.039255
1742.399086
1790.974883
1839.756867
1888.735787
1937.902803
1987.249756
2036.769025
2086.453946
2136.298795
2186.298836
2236.450745
2286.752621
2337.204195
2387.807201
2438.565444
2489.485366
2540.575958
2591.849595
2643.321963
2695.012972
2746.946762
2799.15251
2851.664999
2904.525165
2957.780692
3011.487132
3065.708195
3120.516969
3175.996852
3232.242273
3289.360068
3347.470268
3406.707471
3467.221892
3529.180311
3592.76744
3658.186867
3725.661682
3795.435462
3867.772406
3942.9574
4021.295292
4103.109745
4188.740907
4278.542294
4372.875759
4472.105366
4576.589048
4686.651994
4802.633581
4924.783454
5053.297958
5188.283213
5329.72747
5477.484956
5631.186551
5790.282129
5953.951669
6121.079733
6290.219896
6459.56475
6626.924062
6789.715624
6944.972023
7089.366907
7219.263802
7330.788903
7419.927261
7482.642273
7515.007862
7513.352982
7474.403775
7395.414633
7274.279567
7109.598019
6900.725969
6647.761234
6351.497823
6013.334513
5635.173682
5219.260918
4768.068695
4284.158146
3770.080062
3228.267509
2660.869813
2069.824862
1458.820932
791.6140732
124.5246374
-837.5661656
-1716.31642
-2472.350203
-2146.38428
-3458.718011
-4456.140538
-5367.917737
-6269.12795
-7174.040016
-8068.805436
-8983.868992
-9959.179342
-11052.94679
-11760.59834
-13716.20031
-10657.37293
-12014.76836
-12952.99272
-13756.55532
-11706.87299
-11720.7128
-11431.39919
-10954.42796
-8720.862507
-7754.97147
-6619.50307
-5447.385296
-4325.007468
-3305.9737
-2444.870133
-1720.930344
-1203.944364
-820.7637229
-555.521687
-372.5227567
-248.2499837
-164.8372988
-109.3942191
-72.2008775
-46.86463642
-30.33390161
-19.58176856
-12.59308524
-8.081369251
-5.197248709
-3.355168199
-2.174804922
-1.414486045
-0.907661736
-0.5804982623
-0.3736240672
-0.2394127938
-0.1527638404
-0.09708876495
-0.06147011767
-0.03877217099
-0.02434712938
-0.01522788463
-0.009477959628
-0.005866739995
-0.003608576337
-0.002203390572
-0.001333836551
-0.000799172696
-0.0004728610617
-0.000275448437
-0.0001572653031
-8.741376313e-05
-4.678378964e-05
-2.363338744e-05
-1.080294113e-05
-3.966357818e-06
-5.380013445e-07
1.007017527e-06
1.553042825e-06
1.601889648e-06
1.430023261e-06
1.183414947e-06
9.341427044e-07
7.136980447e-07
5.322442094e-07
3.894983488e-07
2.806902234e-07
1.996784259e-07
1.404638188e-07
9.782807891e-08
6.751695148e-08
4.620430886e-08
3.13654811e-08
2.112637767e-08
1.412013717e-08
9.364177255e-09
6.160799721e-09
4.019914025e-09
2.600623058e-09
1.668017564e-09
1.007836162e-09
6.037221533e-10
3.59278012e-10
2.120067665e-10
1.237402096e-10
7.119507544e-11
4.019343821e-11
2.212504506e-11
1.42667271e-11
8.990770331e-12
5.031216926e-12
2.549258824e-12
1.055697945e-12
2.045333854e-13
-2.419825242e-13
-4.428892703e-13
-5.017540076e-13
-4.840882564e-13
-4.299450604e-13
-3.627703594e-13
-2.954669897e-13
-2.344517054e-13
-1.823057002e-13
-1.394626801e-13
-1.052529588e-13
-7.852625623e-14
-5.800541775e-14
-4.247291847e-14
-3.085687183e-14
-2.172548158e-14
-1.49447644e-14
-1.022627032e-14
-6.960482789e-15
-4.710529122e-15
-3.169527433e-15
-2.118440554e-15
-1.406950614e-15
-9.289417069e-16
-6.099313404e-16
-3.983201239e-16
-2.587405836e-16
-1.671664385e-16
-1.074003863e-16
-6.859634821e-17
-4.353541569e-17
-2.743964124e-17
-1.716338096e-17
-1.064649567e-17
-6.547311683e-18
-3.998032815e-18
-2.398599072e-18
-1.428033499e-18
-8.483067883e-19
-5.017200798e-19
-2.945809684e-19
-1.706387912e-19
-9.659309886e-20
-5.289403854e-20
-2.752799805e-20
-1.313663029e-20
-5.235015549e-21
-1.108220846e-21
8.721601525e-22
1.670924964e-21
1.850374739e-21
1.730942746e-21
1.489493997e-21
1.219057291e-21
9.647835642e-22
7.453282199e-22
5.653606577e-22
4.227232319e-22
3.124029498e-22
2.28634902e-22
1.659339761e-22
1.195299084e-22
8.548423667e-23
6.06485822e-23
4.108699608e-23
2.607231038e-23
1.651540137e-23
1.043631958e-23
6.574343339e-24
4.125503773e-24
2.576653092e-24
1.600178777e-24
9.869925626e-25
6.037760274e-25
3.6565346e-25
2.187050593e-25
1.287709989e-25
7.428360203e-26
4.168116961e-26
2.682959478e-26
1.933152986e-26
1.381321151e-26
9.785034377e-27
6.876708209e-27
4.800999491e-27
2.582820037e-27
1.124053068e-27
3.264724116e-28
-7.854703825e-29
-2.582395299e-28
-3.144360672e-28
-3.075496382e-28
-2.722764509e-28
-2.276646621e-28
-1.83463869e-28
-1.440746413e-28
-1.110008889e-28
-8.426906633e-29
-6.322898201e-29
-4.698945293e-29
-3.464215764e-29
-2.536559557e-29
-1.846351046e-29
-1.336937794e-29
-9.469799754e-30
-6.515492752e-30
-4.466226525e-30
-3.048230007e-30
-2.069863551e-30
-1.39691112e-30
-9.378611938e-31
-6.268714231e-31
-4.174063099e-31
-2.770403138e-31
-1.833780346e-31
-1.211054333e-31
-7.979968718e-32
-5.24498726e-32
-3.437681801e-32
-2.246065143e-32
-1.462357141e-32
-9.48362913e-33
-6.123095592e-33
-3.93359281e-33
-2.512613173e-33
-1.594450613e-33
-1.004138434e-33
-6.267947113e-34
-3.872360738e-34
-2.364586765e-34
-1.426991325e-34
-8.473753911e-35
-4.894458659e-35
-2.807840668e-35
-1.598286695e-35
-9.016788187e-36
-5.033850167e-36
-2.77620591e-36
-1.508094505e-36
-8.041273792e-37
-4.188430338e-37
-2.115374594e-37
-1.023657848e-37
-4.647743234e-38
-1.897733447e-38
-6.257847878e-39
-1.033889269e-39
9.113820676e-40
1.481988003e-39
1.363441498e-39
1.299329651e-39
1.247783309e-39
1.220924007e-39
1.343551798e-39
1.383166602e-39
1.319875882e-39
1.167793347e-39
1.039379711e-39
9.531388602e-40
7.88660964e-40
6.395729206e-40
5.121197514e-40
3.98198687e-40
3.059569423e-40
2.330352289e-40
1.761521685e-40
1.32499656e-40
9.96683266e-41
7.525100678e-41
5.803516e-41
4.877664176e-41
3.541440878e-41
2.618848241e-41
1.725494833e-41
1.069873034e-41
5.505390064e-42
3.539618707e-42
5.758370163e-42
4.527371029e-42
1.743279168e-42
-7.435792404e-43
9.808547104e-43
1.068508625e-42
1.2332056e-42
1.869097833e-42
1.114134355e-42
9.804854195e-43
6.180728612e-43
2.077454165e-43
8.085369811e-44
3.187195981e-44
5.298222188e-44
6.565219957e-44
1.633994052e-43
2.401502596e-43
1.039241564e-43
9.981779187e-44
1.514881181e-43
1.079540179e-43
1.778789041e-44
6.21182141e-44
2.078252542e-44
6.372081946e-45
1.941012565e-44
7.985098832e-44
4.838008714e-44
3.963655022e-44
1.508323984e-44
2.039692277e-44
1.488034477e-44
-3.527523532e-45
-2.080764645e-44
-7.332840869e-45
-1.886877036e-44
-1.997822998e-44
-1.994788929e-44
-1.324593724e-44
-1.530765645e-44
-1.535741991e-44
-2.137859527e-44
-2.657996646e-44
-2.495559026e-44
-2.263177948e-44
-1.787393012e-44
-1.281506487e-44
-5.071086007e-45
-2.500671714e-45
-3.632362642e-46
1.625285401e-45
2.960980884e-45
2.119263546e-45
2.08821921e-45
2.80310066e-45
1.965954637e-45
2.630875934e-45
2.67382508e-45
2.723679276e-45
2.270002042e-45
1.124540613e-45
2.186150042e-46
1.393033356e-46
4.09858239e-46
5.57909198e-46
6.225680055e-46
6.22808772e-47
-1.128686037e-46
-3.308531366e-46
-7.111875028e-47
4.649852304e-47
6.708909076e-47
1.374307856e-46
1.271594371e-46
1.297547283e-46
9.58517158e-47
1.434500789e-47
-1.518665697e-48
5.174628362e-47
8.261741137e-47
7.153809585e-47
1.159027734e-47
-2.883931542e-47
-5.0552005e-47
-5.17274504e-47
-3.409113185e-47
-1.67782046e-47
2.250457088e-48
9.788087915e-48
6.986542641e-48
3.058308509e-49
3.638045442e-49
1.995487442e-48
2.870492324e-48
5.82183322e-48
4.501039822e-48
4.6048449e-48
1.13036299e-48
1.174449234e-48
6.491499464e-49
9.961311001e-49
2.53049501e-48
1.090424944e-48
8.176107006e-49
1.518488134e-48
1.220073189e-48
7.052185363e-50
-4.138297386e-49
-1.099447306e-48
-1.164999963e-48
-7.856145913e-49
-2.589415027e-49
2.274438927e-49
1.172928379e-49
1.919370304e-49
-8.07634324e-51
6.914019007e-50
9.770885442e-50
7.80520549e-51
5.60453201e-50
1.178606822e-49
1.308886715e-49
8.538207149e-50
-3.138086898e-50
-2.960930355e-50
-4.932215847e-50
5.329416453e-51
1.205159329e-50
4.990913617e-51
2.015211423e-50
2.743465052e-50
3.532134669e-50
2.648998926e-50
4.124232496e-50
4.438713137e-50
4.783962426e-50
4.484816982e-50
5.379391195e-50
5.455855914e-50
6.738575136e-50
5.984379758e-50
4.725972646e-50
5.267296289e-50
4.949755421e-50
5.093737577e-50
5.606149445e-50
5.054827189e-50
3.596640259e-50
4.232603843e-50
5.405442121e-50
5.819429473e-50
5.660373868e-50
5.204208868e-50
4.150172894e-50
3.807864002e-50
3.181997065e-50
3.371145234e-50
3.398822248e-50
3.475260238e-50
3.555868688e-50
3.657131719e-50
3.804081224e-50
3.524470875e-50
3.121597577e-50
2.478634162e-50
2.401057857e-50
1.888002832e-50
1.642083101e-50
1.64885629e-50
1.788116259e-50
2.173711781e-50
2.542660549e-50
2.419309165e-50
2.207405662e-50
2.403551065e-50
2.483790478e-50
1.924032428e-50
1.987739115e-50
2.222637594e-50
2.258972027e-50
2.166682704e-50
2.202331226e-50
2.192480924e-50
1.862220546e-50
1.164556415e-50
8.682476258e-51
6.85288989e-51
8.237262561e-51
1.103418818e-50
1.328014488e-50
1.29242779e-50
1.304134166e-50
1.36105986e-50
1.146936067e-50
9.606705447e-51
9.076117189e-51
8.975293006e-51
8.807900341e-51
8.163142956e-51
8.696653879e-51
8.427304021e-51
7.168009652e-51
5.783249931e-51
5.192356704e-51
5.278232593e-51
4.655018365e-51
3.0429956e-51
2.448099281e-51
2.963355826e-51
4.384791357e-51
4.989018759e-51
4.481215866e-51
4.049763962e-51
4.977393807e-51
5.044451003e-51
4.241827619e-51
3.99590214e-51
4.053225003e-51
3.838991221e-51
3.470028628e-51
3.729714526e-51
3.213262663e-51
3.751735546e-51
2.808111801e-51
2.272275957e-51
2.574800089e-51
3.030429117e-51
3.304382469e-51
2.630127629e-51
3.055825258e-51
3.380354373e-51
3.202825174e-51
2.958860912e-51
2.098523675e-51
2.900661704e-51
3.456404739e-51
2.991917684e-51
2.804299318e-51
2.629338173e-51
2.263124403e-51
1.890308186e-51
1.884741754e-51
1.582908827e-51
1.279162758e-51
1.509522728e-51
1.571456944e-51
1.250995193e-51
1.773926138e-51
1.58247676e-51
1.139459343e-51
1.370359526e-51
1.562953957e-51
1.510337608e-51
1.242637616e-51
9.075630248e-52
5.431148179e-52
3.803340134e-52
2.25088603e-52
6.847095689e-52
8.648352711e-52
6.517483795e-52
4.059985144e-52
2.205020766e-52
-4.40454429e-52
2.771053582e-52
1.218344773e-52
2.006115887e-53
9.345034444e-53
1.643008784e-53
9.393397995e-53
5.214974096e-53
2.264289413e-53
1.489884282e-53
-9.925395522e-54
2.883209932e-54
1.265741562e-54
-4.894812671e-55
5.664879266e-55
-2.051758506e-55
-2.681012394e-55
4.460607717e-55
7.716487781e-56
3.33216569e-57
-8.301648194e-57
-5.962419037e-58
-1.37104706e-56
-5.354457603e-57
-2.173246973e-57
-9.961933445e-58
-7.684060547e-58
3.76662845e-59
9.027990598e-59
1.731725725e-58
6.750025552e-59
1.638903157e-58
-8.549144438e-60
-8.332895102e-61
3.899803682e-60
-1.279746993e-61
-1.197496808e-59
2.404925711e-60
1.092220284e-60
-2.041673486e-60
-2.531407128e-60
-2.600833244e-60
-1.83134903e-61
-5.550678064e-61
-6.384874661e-61
4.234706518e-61
2.12454961e-62
-9.125057881e-61
-2.76785415e-61
-1.768651728e-61
7.073488058e-62
2.723201776e-61
4.742879262e-63
-5.393049703e-62
-1.858948374e-62
-2.095185782e-62
-3.045278987e-63
-1.902880318e-63
9.833156716e-63
3.025149449e-63
7.373964567e-65
4.139251444e-66
-9.519617958e-64
-2.234209582e-65
-1.220572819e-65
1.082578235e-64
1.073052884e-65
-1.292864925e-66
-2.962509598e-65
1.82476626e-65
-7.427085866e-66
-2.324513172e-66
8.815613197e-67
-1.875940082e-66
8.631284886e-68
-1.998976878e-66
2.956041246e-68
8.7663492e-67
-7.58174694e-67
-5.509767861e-67
-1.950977661e-67
3.900301985e-67
9.496722307e-68
-3.021512976e-68
-6.518556604e-68
-8.164425552e-69
1.234622272e-68
1.052091096e-68
-3.482115269e-69
-8.613800653e-70
-8.058150286e-70
7.087923929e-70
9.434003767e-72
-3.298146675e-73
3.031384026e-71
2.186203714e-72
3.406577558e-72
-2.765073543e-72
-7.096770702e-73
1.580369129e-72
1.717808983e-74
3.388836088e-73
6.013603374e-73
-3.760534219e-73
-2.139493113e-73
-2.317981184e-75
-1.111294314e-73
-4.70629569e-74
8.02681928e-74
1.598248051e-73
2.19696951e-75
-1.889658155e-74
2.92341102e-74
8.468646702e-74
3.392052175e-74
-4.655870928e-76
4.213414099e-74
-1.429231376e-74
2.836071394e-74
5.736940323e-75
1.908946457e-74
1.13996332e-75
-1.022860033e-74
2.277101149e-75
-1.532860361e-74
-1.811054821e-74
-2.383711351e-74
-8.403145164e-75
3.523562899e-75
-4.240007579e-74
-4.23221194e-74
-6.26864503e-74
2.519362775e-74
3.891715538e-76
-1.023099395e-74
-5.853731488e-74
2.427721404e-75
-9.869972944e-74
-1.047933091e-74
-2.447243667e-74
-1.893355598e-73
-1.946863646e-75
3.280992453e-75
-1.320570521e-73
-2.352111492e-74
-6.75582418e-74
-1.780106708e-74
-3.617138871e-74
-1.667800789e-75
-1.19677448e-73
-3.641096373e-74
1.109837337e-75
-1.516090816e-74
5.933380221e-74
-6.096526506e-74
3.30168125e-74
-1.602673815e-74
-4.361523535e-76
6.921339058e-74
-7.400363378e-76
-4.227594275e-74
-7.220183237e-74
-1.113452315e-73
-1.16076635e-75
5.205005217e-74
1.659262678e-75
5.170248209e-75
2.323148354e-75
-5.553522228e-74
-1.438671498e-73
6.13728036e-74
6.36162254e-74
-4.683501325e-74
-1.031570672e-73
-1.399545068e-74
-2.506345469e-74
6.56976607e-74
-1.492704398e-73
-9.704002284e-75
-1.132187586e-75
-3.854495004e-74
4.480343275e-76
-1.540427143e-73
-5.785009967e-75
-1.819582197e-74
-6.067147669e-74
1.028776636e-75
5.313439572e-74
-6.360470884e-74
-1.18440119e-74
-3.418203091e-74
-9.270029127e-74
-6.094554068e-76
-7.24815458e-77
-2.7445443e-74
4.488262694e-76
-6.674165484e-74
4.872569509e-74
1.160421092e-75
1.186520307e-74
-1.604645987e-76
-1.110057586e-73
-9.780082019e-74
-5.212993684e-74
-1.308806823e-74
2.452369457e-74
7.95986049e-76
-4.396314117e-74
2.976630273e-74
1.865890339e-76
3.137077202e-76
-1.444797655e-74
-1.402198371e-74
-1.223975446e-76
1.52462218e-76
-1.702152885e-78
-1.603936449e-76
2.000398189e-78
4.363292948e-75
-1.190963612e-76
-6.036997433e-79
-1.489370856e-78
-9.565753874e-76
-4.614418299e-78
5.357636652e-76
4.747363513e-76
-1.327580844e-74
-8.069610401e-75
-1.20963524e-74
4.694669209e-74
3.14200759e-74
3.33088454e-76
1.173317746e-76
-3.637836207e-76
6.006892025e-77
-3.305547669e-74
-4.484927511e-75
4.149014887e-74
8.467075112e-75
-2.227024525e-75
-1.403205056e-74
6.006305193e-74
1.839146534e-73
4.838039319e-74
4.44539072e-74
-6.666864687e-74
-1.575801697e-74
2.346258406e-76
1.957385632e-75
-8.937518966e-75
)
;

boundaryField
{
    inlet
    {
        type            calculated;
        value           uniform 0;
    }
    outlet
    {
        type            calculated;
        value           uniform -8.937519094e-75;
    }
    wall
    {
        type            empty;
    }
}


// ************************************************************************* //
