/*--------------------------------*- C++ -*----------------------------------*\
  =========                 |
  \\      /  F ield         | OpenFOAM: The Open Source CFD Toolbox
   \\    /   O peration     | Website:  https://openfoam.org
    \\  /    A nd           | Version:  7
     \\/     M anipulation  |
\*---------------------------------------------------------------------------*/
FoamFile
{
    version     2.0;
    format      ascii;
    class       volScalarField;
    location    "0.000558243009";
    object      ddt0(rho,NC3H7);
}
// * * * * * * * * * * * * * * * * * * * * * * * * * * * * * * * * * * * * * //

dimensions      [1 -3 -1 0 0 0 0];

internalField   nonuniform List<scalar> 
1500
(
-1.822226513e-23
-2.062889146e-23
-2.270020807e-23
-2.410420817e-23
-2.478887567e-23
-2.501170802e-23
-2.501328046e-23
-2.495300775e-23
-2.490509751e-23
-2.48854679e-23
-2.488626808e-23
-2.489726122e-23
-2.491172899e-23
-2.492624905e-23
-2.493923503e-23
-2.495007357e-23
-2.495863351e-23
-2.49650009e-23
-2.496932811e-23
-2.497175644e-23
-2.497239384e-23
-2.497132618e-23
-2.496864248e-23
-2.496445887e-23
-2.495893207e-23
-2.495225979e-23
-2.49446707e-23
-2.49364088e-23
-2.492771741e-23
-2.491882628e-23
-2.490994369e-23
-2.490125343e-23
-2.489291555e-23
-2.4885069e-23
-2.487783456e-23
-2.487131723e-23
-2.486560754e-23
-2.486078206e-23
-2.485690311e-23
-2.485401823e-23
-2.485215969e-23
-2.485134431e-23
-2.48515738e-23
-2.485283523e-23
-2.485510174e-23
-2.485833313e-23
-2.486247641e-23
-2.486746627e-23
-2.487322561e-23
-2.487966619e-23
-2.488668951e-23
-2.489418805e-23
-2.490204682e-23
-2.491014527e-23
-2.491835944e-23
-2.492656431e-23
-2.493463619e-23
-2.494245513e-23
-2.494990722e-23
-2.495688676e-23
-2.496329812e-23
-2.496905734e-23
-2.497409346e-23
-2.497834943e-23
-2.498178275e-23
-2.498436575e-23
-2.498608551e-23
-2.498694336e-23
-2.498695411e-23
-2.498614494e-23
-2.498455404e-23
-2.498222907e-23
-2.497922544e-23
-2.497560457e-23
-2.497143213e-23
-2.496677643e-23
-2.496170691e-23
-2.495629281e-23
-2.495060214e-23
-2.49447008e-23
-2.493865197e-23
-2.493251575e-23
-2.492634885e-23
-2.492020463e-23
-2.491413304e-23
-2.490818084e-23
-2.490239172e-23
-2.489680649e-23
-2.489146327e-23
-2.488639757e-23
-2.488164232e-23
-2.487722794e-23
-2.487318225e-23
-2.486953037e-23
-2.486629464e-23
-2.486349448e-23
-2.486114622e-23
-2.485926305e-23
-2.485785486e-23
-2.485692824e-23
-2.485648646e-23
-2.485652951e-23
-2.485705421e-23
-2.485805434e-23
-2.485952078e-23
-2.486144163e-23
-2.48638024e-23
-2.486658607e-23
-2.48697732e-23
-2.487334193e-23
-2.487726805e-23
-2.488152493e-23
-2.488608356e-23
-2.489091257e-23
-2.489597822e-23
-2.490124459e-23
-2.490667373e-23
-2.491222596e-23
-2.491786024e-23
-2.492353458e-23
-2.492920664e-23
-2.493483423e-23
-2.494037594e-23
-2.494579168e-23
-2.495104327e-23
-2.49560949e-23
-2.496091352e-23
-2.496546921e-23
-2.496973534e-23
-2.497368879e-23
-2.49773099e-23
-2.498058258e-23
-2.498349417e-23
-2.498603542e-23
-2.498820039e-23
-2.498998636e-23
-2.499139379e-23
-2.499242625e-23
-2.499309034e-23
-2.499339569e-23
-2.499335482e-23
-2.499298307e-23
-2.49922984e-23
-2.499132112e-23
-2.499007359e-23
-2.498857977e-23
-2.49868647e-23
-2.498495396e-23
-2.498287299e-23
-2.498064644e-23
-2.497829757e-23
-2.497584757e-23
-2.497331514e-23
-2.497071604e-23
-2.496806287e-23
-2.496536503e-23
-2.496262879e-23
-2.495985762e-23
-2.495705262e-23
-2.495421314e-23
-2.495133742e-23
-2.494842339e-23
-2.494546931e-23
-2.494247453e-23
-2.493943999e-23
-2.493636866e-23
-2.493326574e-23
-2.493013869e-23
-2.492699704e-23
-2.492385197e-23
-2.49207158e-23
-2.491760133e-23
-2.491452112e-23
-2.49114868e-23
-2.490850844e-23
-2.490559409e-23
-2.490274948e-23
-2.489997793e-23
-2.489728048e-23
-2.489465622e-23
-2.489210277e-23
-2.48896169e-23
-2.488719515e-23
-2.488483447e-23
-2.488253271e-23
-2.488028906e-23
-2.487810429e-23
-2.487598081e-23
-2.487392259e-23
-2.487193501e-23
-2.487002452e-23
-2.486819836e-23
-2.486646417e-23
-2.486482974e-23
-2.486330259e-23
-2.486188975e-23
-2.486059738e-23
-2.485943045e-23
-2.485839238e-23
-2.485748464e-23
-2.485670648e-23
-2.485605471e-23
-2.485552375e-23
-2.485510598e-23
-2.485479247e-23
-2.485457423e-23
-2.485444369e-23
-2.485439663e-23
-2.485443393e-23
-2.485456318e-23
-2.48547995e-23
-2.485516532e-23
-2.485568872e-23
-2.485640011e-23
-2.485732737e-23
-2.485848945e-23
-2.48598893e-23
-2.48615068e-23
-2.486329275e-23
-2.48651654e-23
-2.486701052e-23
-2.48686862e-23
-2.487003309e-23
-2.487089001e-23
-2.487111456e-23
-2.487060698e-23
-2.486933519e-23
-2.486735784e-23
-2.48648419e-23
-2.486207104e-23
-2.485944142e-23
-2.485744209e-23
-2.485661871e-23
-2.485752078e-23
-2.486063482e-23
-2.486630787e-23
-2.487466824e-23
-2.488555165e-23
-2.489844267e-23
-2.491244134e-23
-2.492626502e-23
-2.493829507e-23
-2.494668007e-23
-2.494951811e-23
-2.494516486e-23
-2.493276985e-23
-2.491313421e-23
-2.488981179e-23
-2.486896038e-23
-2.485392905e-23
-2.483961564e-23
-2.483864859e-23
-2.483864417e-23
-2.48389029e-23
-2.48392844e-23
-2.483977895e-23
-2.484040977e-23
-2.484120064e-23
-2.484217073e-23
-2.484333364e-23
-2.48446998e-23
-2.484627863e-23
-2.484807954e-23
-2.485011299e-23
-2.485239022e-23
-2.485492325e-23
-2.485772503e-23
-2.486080915e-23
-2.486418986e-23
-2.486788198e-23
-2.487190108e-23
-2.487626357e-23
-2.488098642e-23
-2.488608755e-23
-2.489158553e-23
-2.48975003e-23
-2.490385234e-23
-2.491066341e-23
-2.491795614e-23
-2.492575466e-23
-2.493408398e-23
-2.494297071e-23
-2.495244268e-23
-2.496252919e-23
-2.497326134e-23
-2.498467163e-23
-2.499679443e-23
-2.500966615e-23
-2.502332505e-23
-2.503781154e-23
-2.505316845e-23
-2.5069441e-23
-2.508667705e-23
-2.510492712e-23
-2.512424488e-23
-2.514468712e-23
-2.516631388e-23
-2.518918899e-23
-2.521338015e-23
-2.5238959e-23
-2.526600182e-23
-2.52945894e-23
-2.532480778e-23
-2.535674813e-23
-2.539050752e-23
-2.542618915e-23
-2.546390278e-23
-2.550376518e-23
-2.554590052e-23
-2.559044102e-23
-2.563752756e-23
-2.568730989e-23
-2.573994775e-23
-2.579561103e-23
-2.585448092e-23
-2.591675015e-23
-2.598262434e-23
-2.605232239e-23
-2.612607748e-23
-2.62041382e-23
-2.628676919e-23
-2.637425245e-23
-2.646688827e-23
-2.656499671e-23
-2.666891828e-23
-2.677901589e-23
-2.689567557e-23
-2.701930839e-23
-2.715035168e-23
-2.728927085e-23
-2.743656079e-23
-2.759274775e-23
-2.77583913e-23
-2.793408567e-23
-2.812046265e-23
-2.831819273e-23
-2.852798799e-23
-2.875060385e-23
-2.89868415e-23
-2.923755068e-23
-2.950363179e-23
-2.978603858e-23
-3.008578105e-23
-3.040392794e-23
-3.074160979e-23
-3.110002196e-23
-3.14804273e-23
-3.188415975e-23
-3.231262716e-23
-3.276731478e-23
-3.324978853e-23
-3.376169821e-23
-3.430478149e-23
-3.488086665e-23
-3.549187694e-23
-3.613983367e-23
-3.682685978e-23
-3.755518397e-23
-3.832714398e-23
-3.914519032e-23
-4.001189002e-23
-4.092993022e-23
-4.190212162e-23
-4.293140239e-23
-4.402084128e-23
-4.51736414e-23
-4.639314304e-23
-4.76828278e-23
-4.904632051e-23
-5.048739314e-23
-5.200996715e-23
-5.361811628e-23
-5.531606894e-23
-5.710821031e-23
-5.899908472e-23
-6.099339662e-23
-6.309601305e-23
-6.531196382e-23
-6.76464432e-23
-7.010480975e-23
-7.269258686e-23
-7.541546257e-23
-7.827928874e-23
-8.129008047e-23
-8.445401393e-23
-8.777742498e-23
-9.126680711e-23
-9.492880784e-23
-9.877022597e-23
-1.027980079e-22
-1.070192424e-22
-1.114411566e-22
-1.160711104e-22
-1.209165906e-22
-1.259852037e-22
-1.312846699e-22
-1.368228145e-22
-1.426075608e-22
-1.486469206e-22
-1.54948985e-22
-1.615219153e-22
-1.683739318e-22
-1.75513304e-22
-1.829483383e-22
-1.906873673e-22
-1.987387367e-22
-2.071107932e-22
-2.158118718e-22
-2.248502818e-22
-2.342342936e-22
-2.439721248e-22
-2.540719258e-22
-2.645417663e-22
-2.753896191e-22
-2.866233477e-22
-2.982506911e-22
-3.102792478e-22
-3.227164639e-22
-3.355696169e-22
-3.488458029e-22
-3.62551923e-22
-3.766946685e-22
-3.91280511e-22
-4.063156877e-22
-4.218061909e-22
-4.377577572e-22
-4.541758583e-22
-4.710656903e-22
-4.884321672e-22
-5.062799148e-22
-5.246132622e-22
-5.434362411e-22
-5.627525813e-22
-5.825657099e-22
-6.028787511e-22
-6.236945317e-22
-6.450155809e-22
-6.668441416e-22
-6.891821753e-22
-7.120313757e-22
-7.35393182e-22
-7.592687937e-22
-7.836591919e-22
-8.085651589e-22
-8.339873062e-22
-8.599261019e-22
-8.863819008e-22
-9.133549828e-22
-9.408455917e-22
-9.688539772e-22
-9.973804436e-22
-1.026425403e-21
-1.055989429e-21
-1.086073323e-21
-1.116678175e-21
-1.147805439e-21
-1.179457015e-21
-1.21163532e-21
-1.244343391e-21
-1.277584973e-21
-1.311364622e-21
-1.345687821e-21
-1.380561084e-21
-1.415992097e-21
-1.451989835e-21
-1.488564711e-21
-1.525728729e-21
-1.563495631e-21
-1.601881074e-21
-1.640902806e-21
-1.680580852e-21
-1.720937718e-21
-1.761998594e-21
-1.803791581e-21
-1.846347927e-21
-1.889702267e-21
-1.933892889e-21
-1.978962006e-21
-2.024956046e-21
-2.071925948e-21
-2.119927493e-21
-2.169021631e-21
-2.219274832e-21
-2.270759462e-21
-2.323554159e-21
-2.377744252e-21
-2.433422179e-21
-2.490687934e-21
-2.54964954e-21
-2.61042353e-21
-2.673135459e-21
-2.737920449e-21
-2.804923745e-21
-2.874301292e-21
-2.94622036e-21
-3.020860184e-21
-3.098412623e-21
-3.179082863e-21
-3.263090169e-21
-3.350668619e-21
-3.442067932e-21
-3.537554322e-21
-3.637411401e-21
-3.741941216e-21
-3.851465472e-21
-3.966327038e-21
-4.086891822e-21
-4.213551054e-21
-4.346723339e-21
-4.486855045e-21
-4.634415986e-21
-4.789894873e-21
-4.953932222e-21
-5.127711492e-21
-5.311109999e-21
-5.504948504e-21
-5.71074173e-21
-5.927468943e-21
-6.155986861e-21
-6.397092022e-21
-6.65148933e-21
-6.919916795e-21
-7.203172801e-21
-7.50214641e-21
-7.817859396e-21
-8.151422693e-21
-8.503809072e-21
-8.876100579e-21
-9.272705574e-21
-9.691938904e-21
-1.013540089e-20
-1.060489722e-20
-1.110291765e-20
-1.163089225e-20
-1.218981162e-20
-1.278137225e-20
-1.340748914e-20
-1.407015714e-20
-1.477146395e-20
-1.551361071e-20
-1.629892474e-20
-1.712986876e-20
-1.800904959e-20
-1.893922811e-20
-1.992333033e-20
-2.096446068e-20
-2.20659174e-20
-2.323121047e-20
-2.4464083e-20
-2.57685366e-20
-2.714886191e-20
-2.860967579e-20
-3.015596675e-20
-3.179315154e-20
-3.352714538e-20
-3.536445059e-20
-3.731226853e-20
-3.937864199e-20
-4.157263739e-20
-4.390457815e-20
-4.638634563e-20
-4.903176713e-20
-5.185711818e-20
-5.488177347e-20
-5.812905214e-20
-6.16273159e-20
-6.541139836e-20
-6.952446551e-20
-7.402043989e-20
-7.896716046e-20
-8.44505022e-20
-9.05797502e-20
-9.74946094e-20
-1.053743514e-19
-1.144497484e-19
-1.250186482e-19
-1.374662967e-19
-1.522918601e-19
-1.701430332e-19
-1.918612005e-19
-2.185403634e-19
-2.516040251e-19
-2.929054989e-19
-3.448587671e-19
-4.106091802e-19
-4.942561068e-19
-6.011433214e-19
-7.382377027e-19
-9.14623052e-19
-1.142143977e-18
-1.436245343e-18
-1.817066635e-18
-2.310868452e-18
-2.951891811e-18
-3.78478136e-18
-4.867743241e-18
-6.276660007e-18
-8.110452248e-18
-1.04980641e-17
-1.360756391e-17
-1.765799969e-17
-2.293484255e-17
-2.981010299e-17
-3.876853301e-17
-5.044175451e-17
-6.565271106e-17
-8.547356606e-17
-1.113011161e-16
-1.449550221e-16
-1.888057696e-16
-2.459413692e-16
-3.203845516e-16
-4.173757888e-16
-5.437421601e-16
-7.083781994e-16
-9.22872888e-16
-1.202327449e-15
-1.566422403e-15
-2.040810443e-15
-2.658935493e-15
-3.464409711e-15
-4.514121584e-15
-5.882302983e-15
-7.665855619e-15
-9.991333517e-15
-1.302410656e-14
-1.698040096e-14
-2.214314228e-14
-2.888283393e-14
-3.768512039e-14
-4.918724593e-14
-6.422638476e-14
-8.390386311e-14
-1.096707268e-13
-1.434420843e-13
-1.877504009e-13
-2.459517389e-13
-3.225043124e-13
-4.233463011e-13
-5.564106338e-13
-7.323298691e-13
-9.654064759e-13
-1.274956024e-12
-1.687177811e-12
-2.237776662e-12
-2.975662199e-12
-3.968204897e-12
-5.308758183e-12
-7.12750481e-12
-9.607217899e-12
-1.30063437e-11
-1.7693076e-11
-2.419605916e-11
-3.328043931e-11
-4.606284543e-11
-6.418659956e-11
-9.009078482e-11
-1.274266409e-10
-1.817065718e-10
-2.613236507e-10
-3.791633583e-10
-5.551686052e-10
-8.204448849e-10
-1.223860828e-09
-1.8426999e-09
-2.799886441e-09
-4.291893174e-09
-6.634011761e-09
-1.033399173e-08
-1.621246931e-08
-2.560188584e-08
-4.068017105e-08
-6.504222925e-08
-1.04702409e-07
-1.698952207e-07
-2.783758525e-07
-4.615577121e-07
-7.76022494e-07
-1.325186678e-06
-2.300103306e-06
-4.05616504e-06
-7.256853365e-06
-1.314237745e-05
-2.403181683e-05
-4.426501694e-05
-8.196958867e-05
-0.0001523387186
-0.0002835746982
-0.0005273436394
-0.0009764824325
-0.001793711704
-0.003255686646
-0.005815034958
-0.01017277671
-0.01731858401
-0.0283998279
-0.04409152299
-0.06167813623
-0.0752980701
-0.04889536773
0.00678129897
0.05313053652
-0.2020026149
0.01126958636
0.2885702584
1.17746292
4.364012446
13.69254694
33.7548999
61.26729577
80.11050957
78.7731028
62.50510095
41.25398836
26.2804885
15.99860487
11.16172042
9.274549069
9.122441372
8.160085937
6.688351091
4.774758629
3.442817149
1.753466955
0.3770427304
-0.6419596928
-1.293440377
-1.550229049
-1.567294784
-1.404015235
-1.210352792
-0.9972405377
-0.8023931911
-0.6335958879
-0.4940342033
-0.3817166489
-0.2930096278
-0.2228405628
-0.1666179973
-0.1238865671
-0.09162564849
-0.06740801762
-0.04942176455
-0.03628198801
-0.02672184562
-0.01977131592
-0.01457401192
-0.01059879859
-0.007687554726
-0.005605006893
-0.004072913209
-0.00295134936
-0.002133906
-0.001540172931
-0.001110086013
-0.0007988626089
-0.0005744353161
-0.0004126389823
-0.0002961317415
-0.0002123263183
-0.0001521045161
-0.0001088715358
-7.786392078e-05
-5.56450105e-05
-3.97380518e-05
-2.835995379e-05
-2.02282046e-05
-1.442132106e-05
-1.027785263e-05
-7.32345945e-06
-5.218309533e-06
-3.719169661e-06
-2.652112287e-06
-1.892884756e-06
-1.352803871e-06
-9.686307131e-07
-6.953098702e-07
-5.007679455e-07
-3.621911479e-07
-2.633639873e-07
-1.927685405e-07
-1.422282853e-07
-1.059414411e-07
-7.979261991e-08
-6.086313016e-08
-4.70829276e-08
-3.698346375e-08
-2.952233117e-08
-2.395894738e-08
-1.976648531e-08
-1.656952095e-08
-1.409991096e-08
-1.216558177e-08
-1.062845633e-08
-9.388842943e-09
-8.374391632e-09
-7.53227706e-09
-6.823660922e-09
-6.219763382e-09
-5.69907126e-09
-5.245349515e-09
-4.846220718e-09
-4.492146696e-09
-4.17569533e-09
-3.89101002e-09
-3.633423543e-09
-3.399175185e-09
-3.185201978e-09
-2.988983434e-09
-2.808425052e-09
-2.641770157e-09
-2.487532554e-09
-2.34444461e-09
-2.211416853e-09
-2.087506265e-09
-1.971891156e-09
-1.863851114e-09
-1.762750854e-09
-1.668027139e-09
-1.579178089e-09
-1.495754399e-09
-1.41735208e-09
-1.343606425e-09
-1.274186948e-09
-1.208793149e-09
-1.147150921e-09
-1.089009497e-09
-1.034138856e-09
-9.823274811e-10
-9.333804411e-10
-8.871177186e-10
-8.433727592e-10
-8.019912034e-10
-7.628297708e-10
-7.257552768e-10
-6.906437611e-10
-6.573797121e-10
-6.258553757e-10
-5.959701326e-10
-5.676299419e-10
-5.40746836e-10
-5.152384034e-10
-4.910276213e-10
-4.680420992e-10
-4.462139774e-10
-4.25479568e-10
-4.057790713e-10
-3.870562944e-10
-3.692584111e-10
-3.523357336e-10
-3.362415072e-10
-3.209317167e-10
-3.063649093e-10
-2.925020294e-10
-2.793062661e-10
-2.667429106e-10
-2.547792248e-10
-2.433843182e-10
-2.325290335e-10
-2.221858401e-10
-2.123287351e-10
-2.029331502e-10
-1.939758656e-10
-1.854349292e-10
-1.772895811e-10
-1.69520183e-10
-1.621081523e-10
-1.550359006e-10
-1.482867752e-10
-1.41845006e-10
-1.356956536e-10
-1.298245628e-10
-1.242183171e-10
-1.188641977e-10
-1.137501436e-10
-1.08864715e-10
-1.041970586e-10
-9.973687496e-11
-9.54743883e-11
-9.140031737e-11
-8.750584844e-11
-8.378261008e-11
-8.022264906e-11
-7.681840779e-11
-7.356270315e-11
-7.044870658e-11
-6.746992499e-11
-6.462018316e-11
-6.189360709e-11
-5.928460798e-11
-5.678786743e-11
-5.439832348e-11
-5.211115709e-11
-4.992177988e-11
-4.78258221e-11
-4.581912152e-11
-4.389771283e-11
-4.205781768e-11
-4.029583528e-11
-3.860833331e-11
-3.699203969e-11
-3.54438344e-11
-3.3960742e-11
-3.253992446e-11
-3.117867443e-11
-2.98744087e-11
-2.862466222e-11
-2.742708232e-11
-2.627942321e-11
-2.517954081e-11
-2.412538795e-11
-2.31150095e-11
-2.214653819e-11
-2.121819025e-11
-2.032826155e-11
-1.947512374e-11
-1.865722071e-11
-1.787306522e-11
-1.712123562e-11
-1.640037282e-11
-1.570917732e-11
-1.504640653e-11
-1.441087206e-11
-1.380143727e-11
-1.321701485e-11
-1.265656458e-11
-1.211909119e-11
-1.160364228e-11
-1.110930642e-11
-1.063521123e-11
-1.018052169e-11
-9.744438396e-12
-9.326195994e-12
-8.925061675e-12
-8.54033367e-12
-8.171339907e-12
-7.817436699e-12
-7.478007453e-12
-7.152461518e-12
-6.840232999e-12
-6.540779712e-12
-6.253582114e-12
-5.978142328e-12
-5.713983213e-12
-5.460647441e-12
-5.21769664e-12
-4.984710591e-12
-4.761286439e-12
-4.547037934e-12
-4.341594736e-12
-4.144601718e-12
-3.955718335e-12
-3.774617986e-12
-3.600987423e-12
-3.434526196e-12
-3.274946102e-12
-3.121970673e-12
-2.975334666e-12
-2.834783616e-12
-2.700073369e-12
-2.570969643e-12
-2.447247639e-12
-2.32869162e-12
-2.215094548e-12
-2.10625772e-12
-2.00199042e-12
-1.902109598e-12
-1.806439531e-12
-1.71481155e-12
-1.627063728e-12
-1.543040613e-12
-1.462592955e-12
-1.385577462e-12
-1.311856556e-12
-1.241298122e-12
-1.173775311e-12
-1.109166311e-12
-1.047354142e-12
-9.882264685e-13
-9.316754038e-13
-8.77597337e-13
-8.258927538e-13
-7.764660784e-13
-7.292255047e-13
-6.840828619e-13
-6.409534519e-13
-5.997559175e-13
-5.604121146e-13
-5.228469718e-13
-4.869883766e-13
-4.527670553e-13
-4.201164622e-13
-3.88972666e-13
-3.592742516e-13
-3.309622177e-13
-3.039798824e-13
-2.782727915e-13
-2.537886294e-13
-2.304771379e-13
-2.08290031e-13
-1.871809212e-13
-1.671052423e-13
-1.480201804e-13
-1.298846014e-13
-1.12658991e-13
-9.630538432e-14
-8.078731256e-14
-6.606973955e-14
-5.211900774e-14
-3.890278318e-14
-2.639000794e-14
-1.455084291e-14
-3.35663028e-15
7.220161137e-15
1.72059754e-14
2.662621066e-14
3.550526288e-14
4.386656303e-14
5.173261401e-14
5.912502651e-14
6.606455545e-14
7.25711307e-14
7.866388995e-14
8.436121002e-14
8.968073447e-14
9.463940511e-14
9.925348392e-14
1.035385843e-13
1.075096941e-13
1.111811993e-13
1.145669074e-13
1.176800706e-13
1.205334059e-13
1.231391176e-13
1.255089153e-13
1.276540332e-13
1.295852488e-13
1.313129031e-13
1.328469104e-13
1.341967835e-13
1.353716424e-13
1.363802332e-13
1.372309411e-13
1.37931805e-13
1.384905298e-13
1.389145009e-13
1.392107952e-13
1.393861941e-13
1.394471937e-13
1.394000174e-13
1.392506256e-13
1.390047256e-13
1.386677821e-13
1.382450267e-13
1.377414664e-13
1.371618926e-13
1.365108907e-13
1.357928454e-13
1.350119518e-13
1.34172221e-13
1.332774125e-13
1.323313469e-13
1.313374493e-13
1.302990691e-13
1.292193962e-13
1.28101464e-13
1.269481764e-13
1.257623184e-13
1.245465441e-13
1.233033842e-13
1.220352503e-13
1.207444404e-13
1.194331429e-13
1.181034421e-13
1.167573218e-13
1.153966702e-13
1.140232829e-13
1.126388674e-13
1.112450457e-13
1.098433593e-13
1.084352709e-13
1.070221691e-13
1.056053703e-13
1.041861219e-13
1.027656059e-13
1.013449408e-13
9.992518452e-14
9.850733705e-14
9.70923425e-14
9.568109209e-14
9.427442588e-14
9.287313496e-14
9.147796378e-14
9.008961205e-14
8.87087365e-14
8.733595306e-14
8.597183822e-14
8.46169313e-14
8.327173535e-14
8.193671954e-14
8.061231994e-14
7.929894161e-14
7.799695953e-14
7.670672013e-14
7.542854267e-14
7.416272042e-14
7.290952157e-14
7.166919105e-14
7.044195086e-14
6.92280017e-14
6.802752366e-14
6.684067736e-14
6.566760483e-14
6.450843044e-14
6.336326169e-14
6.22321901e-14
6.111529208e-14
6.001262945e-14
5.892425055e-14
5.785019049e-14
5.679047215e-14
5.574510675e-14
5.471409454e-14
5.369742514e-14
5.269507836e-14
5.170702464e-14
5.073322567e-14
4.977363469e-14
4.882819724e-14
4.789685142e-14
4.697952825e-14
4.607615255e-14
4.51866427e-14
4.431091158e-14
4.344886654e-14
4.260041007e-14
4.176543995e-14
4.094384958e-14
4.013552832e-14
3.93403619e-14
3.855823249e-14
3.77890191e-14
3.703259781e-14
3.628884211e-14
3.555762291e-14
3.483880897e-14
3.413226705e-14
3.343786208e-14
3.275545737e-14
3.208491488e-14
3.142609521e-14
3.077885796e-14
3.014306179e-14
2.951856456e-14
2.890522357e-14
2.830289555e-14
2.771143692e-14
2.713070388e-14
2.656055243e-14
2.600083868e-14
2.545141873e-14
2.491214895e-14
2.438288595e-14
2.386348677e-14
2.335380886e-14
2.285371025e-14
2.236304958e-14
2.188168619e-14
2.140948016e-14
2.094629237e-14
2.049198464e-14
2.004641965e-14
1.96094611e-14
1.918097375e-14
1.87608234e-14
1.834887696e-14
1.794500255e-14
1.754906946e-14
1.716094823e-14
1.678051063e-14
1.640762979e-14
1.604218011e-14
1.568403736e-14
1.533307872e-14
1.498918271e-14
1.465222935e-14
1.432210001e-14
1.399867762e-14
1.368184652e-14
1.337149257e-14
1.306750316e-14
1.276976718e-14
1.247817508e-14
1.219261888e-14
1.191299215e-14
1.163919006e-14
1.137110938e-14
1.110864851e-14
1.085170745e-14
1.060018788e-14
1.035399312e-14
1.011302819e-14
9.877199787e-15
9.646416337e-15
9.420588016e-15
9.199626731e-15
8.983446217e-15
8.771961983e-15
8.565091424e-15
8.36275377e-15
8.164870193e-15
7.971363808e-15
7.782159718e-15
7.597185072e-15
7.416369122e-15
7.239643242e-15
7.066941041e-15
6.89819837e-15
6.733353448e-15
6.572346874e-15
6.415121758e-15
6.261623741e-15
6.11180239e-15
5.965606139e-15
5.822990021e-15
5.683910589e-15
5.548327239e-15
5.416202184e-15
5.287500616e-15
5.162190652e-15
5.040242894e-15
4.921630093e-15
4.806327127e-15
4.694310509e-15
4.585557796e-15
4.480046594e-15
4.377752805e-15
4.278647993e-15
4.182693215e-15
4.089830342e-15
3.999958495e-15
3.912912483e-15
3.828354026e-15
3.745812578e-15
3.664125521e-15
3.581861787e-15
3.4959792e-15
3.401731843e-15
3.291737563e-15
3.15545691e-15
1.698288045e-15
1.747311208e-15
1.207168338e-15
8.194610971e-16
5.507216392e-16
3.662744227e-16
2.409627278e-16
1.566898497e-16
1.006096637e-16
6.370239606e-17
3.969954793e-17
2.428908252e-17
1.453540534e-17
8.461080825e-18
4.748669505e-18
2.530535229e-18
1.242286433e-18
5.216819631e-19
1.39657145e-19
-4.621549207e-20
-1.227686229e-19
-1.416976973e-19
-1.328705573e-19
-1.12866125e-19
-9.036803187e-20
-6.951187477e-20
-5.191990757e-20
-3.790724304e-20
-2.717437377e-20
-1.918803282e-20
-1.337770017e-20
-9.226679326e-21
-6.305482807e-21
-4.275722377e-21
-2.880549864e-21
-1.930382158e-21
-1.288330399e-21
-8.573108822e-22
-5.694945895e-22
-3.780906664e-22
-2.511706837e-22
-1.671501054e-22
-1.115524748e-22
-7.473279015e-23
-5.029941103e-23
-3.403400281e-23
-2.316036804e-23
-1.585412929e-23
-1.091654828e-23
-7.558985141e-24
-5.261246686e-24
-3.678868955e-24
-2.582590463e-24
-1.81889934e-24
-1.284301196e-24
-9.08519079e-25
-6.434774212e-25
-4.560531768e-25
-3.232614442e-25
-2.290600374e-25
-1.621948741e-25
-1.147254647e-25
-8.103952718e-26
-5.715168305e-26
-4.023193416e-26
-2.826373333e-26
-1.981195744e-26
-1.385470552e-26
-9.664157239e-27
-6.722927913e-27
-4.663556129e-27
-3.225713237e-27
-2.223973745e-27
-1.52846158e-27
-1.046747662e-27
-7.139015436e-28
-4.857553216e-28
-3.28734622e-28
-2.217249438e-28
-1.48960864e-28
-9.950666354e-29
-6.572785315e-29
-4.369588516e-29
-2.897004662e-29
-1.880861249e-29
-1.217561185e-29
-7.853413062e-30
-5.151989623e-30
-3.27178917e-30
-1.959167516e-30
-1.313357633e-30
-7.720814461e-31
-4.930346388e-31
-3.043576906e-31
-1.926354238e-31
-1.433496192e-31
-7.310139675e-32
-5.386865956e-32
-3.65902292e-32
-1.101296752e-32
-2.252042308e-33
-1.465259541e-33
-9.788885849e-34
-2.31865924e-33
-6.712576416e-34
-2.016387598e-33
8.162369371e-33
-3.918362439e-34
1.408997655e-33
4.847959235e-34
6.476598888e-33
-5.8507038e-34
-1.361083768e-33
-1.171540412e-33
-4.272102812e-33
-3.752507518e-33
1.199576771e-34
3.764353428e-33
1.458327554e-34
2.091602255e-33
9.610850277e-34
3.662968051e-33
-2.917267142e-33
3.205329481e-33
-1.79433122e-33
-1.225141912e-33
7.008986081e-35
1.594983432e-33
-4.220870159e-33
3.327348709e-33
3.71852566e-33
-4.120630948e-33
-1.374067698e-33
-1.162459794e-32
-4.181443352e-33
-4.145179417e-33
5.568098627e-33
-8.6937887e-34
9.795657742e-34
3.309838368e-35
-1.530193452e-32
1.585029959e-32
-1.04886127e-32
-2.342516689e-32
-1.003631384e-32
7.08346344e-34
-2.607583695e-33
1.102667498e-32
1.660947603e-33
-5.308225368e-33
-7.457146614e-33
2.608205626e-33
1.806410328e-32
8.418933953e-33
3.283718796e-33
5.977060751e-34
-7.854421594e-33
1.005837029e-32
6.247353184e-33
9.603110736e-33
-9.468433823e-33
1.076205773e-32
-1.234484499e-32
5.018691458e-33
-1.957284015e-33
-6.007543351e-34
-5.596518098e-33
-2.750915672e-33
2.351963121e-32
3.238063639e-33
-9.189154861e-33
3.552597749e-33
-6.048381097e-33
-4.548043612e-34
2.333515741e-33
-8.127306426e-33
4.22639828e-33
-2.563220376e-33
9.56811207e-34
1.806125111e-33
-1.283499527e-33
7.624811459e-33
2.587124904e-33
7.751802708e-33
2.59722239e-33
1.167441778e-32
2.017529936e-33
1.624654642e-33
-2.05336741e-32
-1.027299059e-32
3.024661118e-34
-7.284742971e-34
1.534218389e-32
3.915194816e-33
2.874276454e-33
-1.912164241e-33
-2.234775701e-33
1.223472397e-33
-5.861661948e-33
3.587169726e-33
-1.185997328e-32
3.504399843e-33
-3.731899306e-33
-3.08307805e-33
3.574236242e-33
-3.201504708e-33
5.552991139e-33
-2.104678142e-33
3.290590903e-33
-6.516809515e-33
-1.233891653e-33
-1.744155733e-33
1.900760639e-33
-6.321060025e-33
-2.12878559e-33
2.207607598e-33
-6.081958769e-33
-7.935715844e-34
-1.990796965e-33
2.785926723e-33
2.875240015e-33
1.343369385e-33
2.220847128e-33
-3.639265338e-34
2.461062373e-34
1.733007193e-33
-5.852303737e-33
-1.777467902e-33
6.252686245e-33
-2.801168302e-33
-3.38375463e-34
8.506486076e-33
2.904358383e-33
-3.65473342e-33
5.70896409e-33
-4.016437424e-33
2.275868379e-33
2.999720936e-33
-8.013614183e-33
6.537557583e-34
1.399490719e-32
1.329058332e-33
-9.473375538e-33
-9.883658521e-33
-2.531685757e-33
9.571708804e-33
-1.089210145e-32
1.0881317e-32
8.76748053e-33
1.003941907e-32
)
;

boundaryField
{
    inlet
    {
        type            calculated;
        value           uniform 0;
    }
    outlet
    {
        type            calculated;
        value           uniform 1.003942609e-32;
    }
    wall
    {
        type            empty;
    }
}


// ************************************************************************* //
