/*--------------------------------*- C++ -*----------------------------------*\
  =========                 |
  \\      /  F ield         | OpenFOAM: The Open Source CFD Toolbox
   \\    /   O peration     | Website:  https://openfoam.org
    \\  /    A nd           | Version:  7
     \\/     M anipulation  |
\*---------------------------------------------------------------------------*/
FoamFile
{
    version     2.0;
    format      ascii;
    class       volScalarField;
    location    "0.000558243009";
    object      ddt0(rho,CH3O2H);
}
// * * * * * * * * * * * * * * * * * * * * * * * * * * * * * * * * * * * * * //

dimensions      [1 -3 -1 0 0 0 0];

internalField   nonuniform List<scalar> 
1500
(
-3.233589932e-09
-9.975703181e-09
-1.529562205e-08
-1.580604237e-08
-1.237812828e-08
-7.826258497e-09
-4.15661609e-09
-1.907241622e-09
-7.757343087e-10
-2.93261472e-10
-1.186331745e-10
-6.90250439e-11
-6.334120795e-11
-7.061529784e-11
-8.016883759e-11
-8.864590389e-11
-9.504173175e-11
-9.906787248e-11
-1.006664346e-10
-9.987017326e-11
-9.676431062e-11
-9.147446938e-11
-8.416054541e-11
-7.501182299e-11
-6.424230656e-11
-5.208626404e-11
-3.879416844e-11
-2.46291981e-11
-9.864319865e-12
5.220172257e-12
2.03389203e-11
3.520390296e-11
4.952732457e-11
6.302529138e-11
7.542243606e-11
8.645752197e-11
9.588990627e-11
1.035064914e-10
1.091288102e-10
1.12619701e-10
1.138890343e-10
1.128979972e-10
1.096615306e-10
1.042486593e-10
9.678062061e-11
8.742687674e-11
7.639925368e-11
6.394458686e-11
5.033634056e-11
3.586570522e-11
2.083267332e-11
5.537524358e-12
-9.726924733e-12
-2.468206486e-11
-3.906909849e-11
-5.26534762e-11
-6.522820932e-11
-7.661616458e-11
-8.667146734e-11
-9.528014159e-11
-1.023600941e-10
-1.078605136e-10
-1.117607393e-10
-1.140686028e-10
-1.148182562e-10
-1.140674822e-10
-1.118945181e-10
-1.083944505e-10
-1.036752823e-10
-9.785382244e-11
-9.105158255e-11
-8.339088558e-11
-7.499139803e-11
-6.596727932e-11
-5.64251025e-11
-4.646263668e-11
-3.616852438e-11
-2.562280317e-11
-1.489816095e-11
-4.061755561e-12
6.822609224e-12
1.769217684e-11
2.848302214e-11
3.912813264e-11
4.955594601e-11
5.968946664e-11
6.944602298e-11
7.87376862e-11
8.747231585e-11
9.555516013e-11
1.02890908e-10
1.093860707e-10
1.149515534e-10
1.195052748e-10
1.229747048e-10
1.252991772e-10
1.264318814e-10
1.263414233e-10
1.250128973e-10
1.224484233e-10
1.186671357e-10
1.137046497e-10
1.076120503e-10
1.004544843e-10
9.230945208e-11
8.326490958e-11
7.341729691e-11
6.286960172e-11
5.172954555e-11
4.010796839e-11
2.811744392e-11
1.58711355e-11
3.481872035e-12
-8.938606818e-12
-2.128029398e-11
-3.343552238e-11
-4.529959731e-11
-5.677150992e-11
-6.775476438e-11
-7.815832323e-11
-8.789765135e-11
-9.68958157e-11
-1.050845813e-10
-1.124054311e-10
-1.188104368e-10
-1.242629174e-10
-1.287378417e-10
-1.322219464e-10
-1.347135719e-10
-1.362222405e-10
-1.367680203e-10
-1.363807372e-10
-1.350990981e-10
-1.329697947e-10
-1.300466357e-10
-1.263897531e-10
-1.220648862e-10
-1.171427469e-10
-1.116984203e-10
-1.058107608e-10
-9.95617079e-11
-9.303545862e-11
-8.631743249e-11
-7.949297066e-11
-7.26457574e-11
-6.585595867e-11
-5.919812331e-11
-5.273892226e-11
-4.653484298e-11
-4.062997002e-11
-3.505401581e-11
-2.982076297e-11
-2.492708071e-11
-2.035263863e-11
-1.606043436e-11
-1.199817077e-11
-8.100500588e-12
-4.292053538e-12
-4.91146879e-13
3.386020784e-12
7.420900491e-12
1.16881198e-11
1.625127547e-11
2.115926373e-11
2.644339647e-11
3.211551629e-11
3.816724357e-11
4.457043079e-11
5.127880602e-11
5.823069757e-11
6.535265235e-11
7.256367989e-11
7.977980137e-11
8.691855862e-11
9.390312785e-11
1.006657098e-10
1.071499443e-10
1.133121647e-10
1.191214248e-10
1.245583372e-10
1.296128879e-10
1.34281474e-10
1.385634989e-10
1.424578924e-10
1.459599295e-10
1.490586775e-10
1.517353466e-10
1.539626872e-10
1.557055112e-10
1.569222614e-10
1.575674824e-10
1.575949588e-10
1.569612468e-10
1.556293127e-10
1.535720195e-10
1.507752203e-10
1.472402824e-10
1.429859082e-10
1.380491469e-10
1.324854929e-10
1.263680182e-10
1.197854159e-10
1.12838884e-10
1.056378064e-10
9.829421783e-11
9.091623013e-11
8.360069995e-11
7.64257e-11
6.944352952e-11
6.267523412e-11
5.610771354e-11
4.969448577e-11
4.336098346e-11
3.701490041e-11
3.05614842e-11
2.392291391e-11
1.706006393e-11
9.994089934e-12
2.824527369e-12
-4.259784486e-12
-1.098069326e-11
-1.69848237e-11
-2.187384708e-11
-2.525128111e-11
-2.678396719e-11
-2.627386432e-11
-2.373321727e-11
-1.945387762e-11
-1.405991547e-11
-8.532015721e-12
-4.192822007e-12
-2.644535259e-12
-5.653864045e-12
-1.498453381e-11
-3.218394185e-11
-5.833746601e-11
-9.381084367e-11
-1.380071963e-10
-1.891698413e-10
-2.442645442e-10
-2.989751278e-10
-3.478456481e-10
-3.846018063e-10
-4.026898885e-10
-3.960684121e-10
-3.602949765e-10
-2.937673816e-10
-1.988627198e-10
-8.103362817e-11
5.610185641e-11
1.42196024e-10
1.536583083e-10
1.623997765e-10
1.704947577e-10
1.784164304e-10
1.862529295e-10
1.939832542e-10
2.01567245e-10
2.089619e-10
2.161335617e-10
2.230569178e-10
2.297113236e-10
2.360790337e-10
2.421413784e-10
2.478790452e-10
2.532717926e-10
2.58297279e-10
2.629320234e-10
2.671512197e-10
2.709291313e-10
2.742385167e-10
2.770503089e-10
2.793348794e-10
2.810606067e-10
2.821951108e-10
2.827027449e-10
2.825477947e-10
2.816916734e-10
2.800949006e-10
2.777145704e-10
2.745070296e-10
2.704253068e-10
2.654207183e-10
2.594420493e-10
2.524346873e-10
2.44342213e-10
2.351049966e-10
2.246598243e-10
2.129408894e-10
1.998788826e-10
1.854006394e-10
1.694293497e-10
1.518841401e-10
1.326805525e-10
1.117290225e-10
8.893564475e-11
6.420223439e-11
3.742498369e-11
8.494761529e-12
-2.270241432e-11
-5.628702621e-11
-9.238507646e-11
-1.311294756e-10
-1.726589806e-10
-2.171197646e-10
-2.646651564e-10
-3.154560993e-10
-3.696613446e-10
-4.274576328e-10
-4.890303197e-10
-5.545741921e-10
-6.242924562e-10
-6.983988346e-10
-7.771163242e-10
-8.606790554e-10
-9.493311187e-10
-1.04332872e-09
-1.142939429e-09
-1.248442504e-09
-1.360130583e-09
-1.478308489e-09
-1.603294823e-09
-1.735421675e-09
-1.875036413e-09
-2.022499902e-09
-2.178189663e-09
-2.342497639e-09
-2.515832889e-09
-2.698620612e-09
-2.891303665e-09
-3.094342173e-09
-3.30821441e-09
-3.533417803e-09
-3.770467396e-09
-4.01989962e-09
-4.28226927e-09
-4.558152786e-09
-4.848146738e-09
-5.152868774e-09
-5.472959004e-09
-5.809079232e-09
-6.161913627e-09
-6.532169602e-09
-6.92057746e-09
-7.327891153e-09
-7.754888838e-09
-8.202372096e-09
-8.671167597e-09
-9.162126305e-09
-9.676124234e-09
-1.021406247e-08
-1.077686673e-08
-1.136548912e-08
-1.19809057e-08
-1.262411918e-08
-1.329615721e-08
-1.39980721e-08
-1.473094234e-08
-1.549587122e-08
-1.629398674e-08
-1.712644182e-08
-1.799441377e-08
-1.88991035e-08
-1.984173622e-08
-2.082355983e-08
-2.184584539e-08
-2.290988522e-08
-2.40169948e-08
-2.516850863e-08
-2.636578238e-08
-2.761019057e-08
-2.890312646e-08
-3.024600063e-08
-3.164024005e-08
-3.308728779e-08
-3.45886e-08
-3.614564752e-08
-3.775991179e-08
-3.943288605e-08
-4.116607193e-08
-4.296097918e-08
-4.481912423e-08
-4.6742028e-08
-4.873121552e-08
-5.078821241e-08
-5.291454438e-08
-5.511173645e-08
-5.738130901e-08
-5.972477759e-08
-6.214365126e-08
-6.463942862e-08
-6.721359832e-08
-6.986763561e-08
-7.260300192e-08
-7.542114045e-08
-7.832347708e-08
-8.13114154e-08
-8.438633751e-08
-8.754960077e-08
-9.080253511e-08
-9.414644261e-08
-9.758259394e-08
-1.011122287e-07
-1.047365509e-07
-1.084567296e-07
-1.122738953e-07
-1.16189139e-07
-1.202035116e-07
-1.243180201e-07
-1.285336281e-07
-1.32851254e-07
-1.372717686e-07
-1.417959965e-07
-1.464247112e-07
-1.511586379e-07
-1.559984522e-07
-1.60944776e-07
-1.659981821e-07
-1.711591898e-07
-1.764282673e-07
-1.818058314e-07
-1.872922452e-07
-1.928878232e-07
-1.985928283e-07
-2.044074732e-07
-2.103319228e-07
-2.163662958e-07
-2.225106638e-07
-2.287650557e-07
-2.351294601e-07
-2.416038244e-07
-2.481880613e-07
-2.548820504e-07
-2.616856409e-07
-2.685986549e-07
-2.756208945e-07
-2.827521411e-07
-2.899921651e-07
-2.973407264e-07
-3.04797583e-07
-3.123624962e-07
-3.20035234e-07
-3.278155813e-07
-3.357033432e-07
-3.436983555e-07
-3.518004908e-07
-3.60009665e-07
-3.683258484e-07
-3.767490738e-07
-3.852794448e-07
-3.939171458e-07
-4.026624539e-07
-4.115157457e-07
-4.204775158e-07
-4.295483773e-07
-4.387290839e-07
-4.480205388e-07
-4.57423805e-07
-4.669401225e-07
-4.765709225e-07
-4.863178359e-07
-4.961827194e-07
-5.061676571e-07
-5.162749899e-07
-5.265073215e-07
-5.368675405e-07
-5.473588416e-07
-5.57984735e-07
-5.687490715e-07
-5.796560586e-07
-5.907102841e-07
-6.01916734e-07
-6.132808116e-07
-6.248083629e-07
-6.365056975e-07
-6.48379611e-07
-6.604374071e-07
-6.726869254e-07
-6.851365649e-07
-6.97795303e-07
-7.106727327e-07
-7.237790839e-07
-7.371252468e-07
-7.507228086e-07
-7.64584073e-07
-7.787220982e-07
-7.931507224e-07
-8.078845965e-07
-8.229392179e-07
-8.383309593e-07
-8.540771035e-07
-8.701958812e-07
-8.867065046e-07
-9.036292009e-07
-9.209852525e-07
-9.387970397e-07
-9.570880693e-07
-9.758830201e-07
-9.952077956e-07
-1.015089543e-06
-1.035556719e-06
-1.056639128e-06
-1.078367963e-06
-1.100775861e-06
-1.123896951e-06
-1.147766906e-06
-1.172422982e-06
-1.197904086e-06
-1.224250804e-06
-1.251505439e-06
-1.279711996e-06
-1.308915681e-06
-1.33917074e-06
-1.370350717e-06
-1.402695635e-06
-1.436391408e-06
-1.471717371e-06
-1.508267629e-06
-1.546094586e-06
-1.585261326e-06
-1.625833519e-06
-1.667880197e-06
-1.711473638e-06
-1.756689615e-06
-1.803607558e-06
-1.852310775e-06
-1.902885331e-06
-1.955468502e-06
-2.010895903e-06
-2.068580113e-06
-2.128607271e-06
-2.191088061e-06
-2.255942898e-06
-2.323315876e-06
-2.393457093e-06
-2.466488033e-06
-2.542531436e-06
-2.62171677e-06
-2.70417944e-06
-2.790060825e-06
-2.879508634e-06
-2.972677287e-06
-3.069728343e-06
-3.170831108e-06
-3.27616314e-06
-3.385910986e-06
-3.500270955e-06
-3.619449943e-06
-3.743666467e-06
-3.873151813e-06
-4.008151313e-06
-4.148925906e-06
-4.295753826e-06
-4.448932699e-06
-4.608781804e-06
-4.775644865e-06
-4.949893166e-06
-5.131929249e-06
-5.322191226e-06
-5.521157747e-06
-5.729353896e-06
-5.947357993e-06
-6.175809619e-06
-6.415418935e-06
-6.66697772e-06
-6.931372131e-06
-7.209597829e-06
-7.502777596e-06
-7.812182032e-06
-8.139253911e-06
-8.485636572e-06
-8.853207479e-06
-9.24411741e-06
-9.660836608e-06
-1.010620877e-05
-1.05835147e-05
-1.109654679e-05
-1.164969658e-05
-1.224805749e-05
-1.289754555e-05
-1.360504096e-05
-1.437855441e-05
-1.522742212e-05
-1.616253496e-05
-1.71966072e-05
-1.83444919e-05
-1.962355098e-05
-2.10540894e-05
-2.26598644e-05
-2.446868306e-05
-2.651310248e-05
-2.883125164e-05
-3.146779426e-05
-3.447505784e-05
-3.7914357e-05
-4.185754408e-05
-4.638882608e-05
-5.160689311e-05
-5.762741148e-05
-6.458594309e-05
-7.264136361e-05
-8.197986384e-05
-9.28196328e-05
-0.0001054163371
-0.0001200695313
-0.0001371301555
-0.0001570093016
-0.0001801884618
-0.0002072315058
-0.0002387986744
-0.0002756629233
-0.0003187290109
-0.0003690557741
-0.0004278821262
-0.0004966573777
-0.0005770765956
-0.0006711218069
-0.0007811100039
-0.0009097490432
-0.001060202688
-0.00123616627
-0.001441954628
-0.001682604247
-0.001963991823
-0.002292971735
-0.002677535361
-0.00312699542
-0.003652199165
-0.00426577446
-0.004982413614
-0.005819200056
-0.006795983757
-0.007935811802
-0.009265421086
-0.01081580051
-0.01262283091
-0.01472801059
-0.017179275
-0.02003191848
-0.02334962518
-0.02720561518
-0.03168390868
-0.03688070858
-0.04290589567
-0.04988462342
-0.05795898976
-0.06728975043
-0.07805801873
-0.09046687796
-0.1047428007
-0.1211367373
-0.1399246917
-0.1614075517
-0.1859098848
-0.2137773447
-0.245372259
-0.2810669041
-0.32123405
-0.3662333541
-0.4163949221
-0.471996956
-0.5332387944
-0.6002083981
-0.6728441271
-0.7508931366
-0.8338635277
-0.9209775748
-1.011125454
-1.102825174
-1.194193816
-1.28293636
-1.366358759
-1.441411745
-1.504770625
-1.552954019
-1.582481036
-1.590062132
-1.572813424
-1.528481118
-1.455657077
-1.353966686
-1.22421015
-1.068441071
-0.889976033
-0.6933243201
-0.4840518508
-0.2685835172
-0.05396026851
0.1524234453
0.3431004138
0.5107917837
0.6486636345
0.7505629202
0.8112167473
0.8262982592
0.7921369233
0.7046293902
0.5504113513
0.3278067702
-0.04637757337
-0.4659488737
-0.876850999
-0.9690517107
-1.731276902
-2.461121212
-3.18079932
-3.875418203
-4.528550655
-5.175229716
-5.974559958
-7.170767316
-8.920400259
-10.81921605
-12.46590748
-12.07850895
-10.86908761
-8.856127453
-6.790289641
-4.941359676
-3.569310785
-2.547592222
-1.807264025
-1.261574895
-0.8882690838
-0.6253671541
-0.4407511202
-0.3112390185
-0.2203353724
-0.1564832775
-0.1109349703
-0.07922354703
-0.05661746862
-0.04067391668
-0.0293154443
-0.02119843908
-0.01538173743
-0.01120413275
-0.00817010184
-0.005934004438
-0.00431674603
-0.003145273348
-0.002293774562
-0.001675906568
-0.001230324725
-0.0009086956343
-0.0006754762827
-0.0005062286019
-0.0003760102494
-0.0002796657609
-0.0002102388767
-0.0001581288949
-0.0001190290741
-8.970944808e-05
-6.772745129e-05
-5.123920535e-05
-3.883272447e-05
-2.951679127e-05
-2.249272517e-05
-1.718484678e-05
-1.316430743e-05
-1.011136407e-05
-7.787291032e-06
-6.013534672e-06
-4.656277095e-06
-3.615010615e-06
-2.814080824e-06
-2.196395611e-06
-1.718779705e-06
-1.348502946e-06
-1.060693097e-06
-8.36403234e-07
-6.61164793e-07
-5.239018548e-07
-4.161146014e-07
-3.312639141e-07
-2.643065135e-07
-2.113430414e-07
-1.693510312e-07
-1.359818614e-07
-1.094059803e-07
-8.81946623e-08
-7.122946116e-08
-5.763270821e-08
-4.671403698e-08
-3.792913989e-08
-3.08478822e-08
-2.512959058e-08
-2.050385576e-08
-1.675558291e-08
-1.371332195e-08
-1.124013664e-08
-9.226443462e-09
-7.584382192e-09
-6.243380765e-09
-5.146653147e-09
-4.248428005e-09
-3.511751027e-09
-2.906738572e-09
-2.40918719e-09
-1.999464346e-09
-1.661621824e-09
-1.382685824e-09
-1.152087542e-09
-9.612056634e-10
-8.029981646e-10
-6.717055324e-10
-5.626111743e-10
-4.718477181e-10
-3.962401852e-10
-3.331788429e-10
-2.80515981e-10
-2.364819991e-10
-1.996171075e-10
-1.687156661e-10
-1.427807672e-10
-1.209871334e-10
-1.026507727e-10
-8.720413091e-11
-7.41757233e-11
-6.317341819e-11
-5.387070334e-11
-4.599538999e-11
-3.932031188e-11
-3.365565847e-11
-2.884264848e-11
-2.47483036e-11
-2.126112665e-11
-1.828752354e-11
-1.574883795e-11
-1.357889122e-11
-1.172193896e-11
-1.013097214e-11
-8.766302977e-12
-7.594386612e-12
-6.586838175e-12
-5.719611959e-12
-4.972315231e-12
-4.327633996e-12
-3.770851841e-12
-3.289446425e-12
-2.872750657e-12
-2.511667836e-12
-2.198432358e-12
-1.926407361e-12
-1.689914798e-12
-1.484091767e-12
-1.304769067e-12
-1.148368478e-12
-1.011815768e-12
-8.92466974e-13
-7.880458266e-13
-6.96590606e-13
-6.164089537e-13
-5.460394055e-13
-4.84218612e-13
-4.298533864e-13
-3.819968433e-13
-3.398280008e-13
-3.026343438e-13
-2.697968803e-13
-2.407773386e-13
-2.151071889e-13
-1.923782138e-13
-1.722343996e-13
-1.54364971e-13
-1.384983766e-13
-1.243971197e-13
-1.118532898e-13
-1.006847119e-13
-9.073161346e-14
-8.185373657e-14
-7.392784641e-14
-6.684556782e-14
-6.051150707e-14
-5.484162317e-14
-4.976181388e-14
-4.520668004e-14
-4.111846132e-14
-3.744609008e-14
-3.414438653e-14
-3.117334284e-14
-2.849750488e-14
-2.608542626e-14
-2.390919425e-14
-2.194401619e-14
-2.016784405e-14
-1.85610659e-14
-1.710622086e-14
-1.578774802e-14
-1.459177337e-14
-1.350591456e-14
-1.251911584e-14
-1.162149431e-14
-1.080421596e-14
-1.005937434e-14
-9.379889671e-15
-8.759417451e-15
-8.192268341e-15
-7.673337998e-15
-7.19804303e-15
-6.762264537e-15
-6.362300993e-15
-5.994821662e-15
-5.656828544e-15
-5.345620502e-15
-5.058762688e-15
-4.794060427e-15
-4.549531533e-15
-4.32338703e-15
-4.114009575e-15
-3.919936912e-15
-3.739846246e-15
-3.572539836e-15
-3.416932064e-15
-3.272039482e-15
-3.136970304e-15
-3.010914293e-15
-2.893135023e-15
-2.782964203e-15
-2.67979406e-15
-2.58307001e-15
-2.49228801e-15
-2.406988123e-15
-2.326751797e-15
-2.251195897e-15
-2.17997091e-15
-2.112757262e-15
-2.049263029e-15
-1.989221015e-15
-1.932385435e-15
-1.878531841e-15
-1.827454074e-15
-1.778962566e-15
-1.732882906e-15
-1.689055215e-15
-1.647332438e-15
-1.60757883e-15
-1.569668818e-15
-1.53348675e-15
-1.498925755e-15
-1.465887228e-15
-1.434280218e-15
-1.404019674e-15
-1.375027272e-15
-1.347229925e-15
-1.320560246e-15
-1.2949553e-15
-1.270356524e-15
-1.246709597e-15
-1.223963748e-15
-1.202071401e-15
-1.180988521e-15
-1.16067358e-15
-1.141087952e-15
-1.122195163e-15
-1.103961444e-15
-1.086354863e-15
-1.069345636e-15
-1.05290536e-15
-1.03700765e-15
-1.021627586e-15
-1.006741669e-15
-9.923276641e-16
-9.783649848e-16
-9.64833615e-16
-9.517148693e-16
-9.389911804e-16
-9.266457678e-16
-9.146626842e-16
-9.030268294e-16
-8.917238341e-16
-8.80740378e-16
-8.700635101e-16
-8.596809235e-16
-8.495811406e-16
-8.397528244e-16
-8.301854495e-16
-8.208689139e-16
-8.117935011e-16
-8.029502039e-16
-7.943301399e-16
-7.859249487e-16
-7.777265544e-16
-7.697272594e-16
-7.619196393e-16
-7.542967834e-16
-7.468519466e-16
-7.395786919e-16
-7.324705731e-16
-7.255219185e-16
-7.187268149e-16
-7.120799039e-16
-7.055758331e-16
-6.992096639e-16
-6.929765143e-16
-6.868717647e-16
-6.808908926e-16
-6.750295177e-16
-6.692834343e-16
-6.636487279e-16
-6.581214562e-16
-6.526977783e-16
-6.473742832e-16
-6.421475239e-16
-6.370141009e-16
-6.319709399e-16
-6.270147827e-16
-6.221427e-16
-6.173518913e-16
-6.126395309e-16
-6.080029943e-16
-6.034396232e-16
-5.989468943e-16
-5.945224077e-16
-5.901637658e-16
-5.858687859e-16
-5.816352636e-16
-5.774610869e-16
-5.733441409e-16
-5.692825279e-16
-5.652743424e-16
-5.61317722e-16
-5.57410777e-16
-5.535518691e-16
-5.497393589e-16
-5.459715654e-16
-5.422469389e-16
-5.385639389e-16
-5.349210811e-16
-5.313170001e-16
-5.277501895e-16
-5.2421936e-16
-5.207232561e-16
-5.172606344e-16
-5.138302452e-16
-5.104309054e-16
-5.070614145e-16
-5.037206901e-16
-5.004077199e-16
-4.97121403e-16
-4.938607066e-16
-4.90624683e-16
-4.874123051e-16
-4.842226045e-16
-4.810547724e-16
-4.779079148e-16
-4.74781183e-16
-4.716737056e-16
-4.68584745e-16
-4.655135175e-16
-4.624592495e-16
-4.594212093e-16
-4.563986918e-16
-4.533909567e-16
-4.503973407e-16
-4.474172539e-16
-4.444499328e-16
-4.414948401e-16
-4.385513777e-16
-4.356189287e-16
-4.326970354e-16
-4.297850148e-16
-4.26882313e-16
-4.239884516e-16
-4.211029219e-16
-4.182252723e-16
-4.153550966e-16
-4.124918511e-16
-4.096351351e-16
-4.067844041e-16
-4.039392901e-16
-4.010993407e-16
-3.98264217e-16
-3.954335106e-16
-3.926068082e-16
-3.897837759e-16
-3.869639976e-16
-3.841471315e-16
-3.813328556e-16
-3.785208521e-16
-3.757108105e-16
-3.729024381e-16
-3.700953871e-16
-3.672893887e-16
-3.644841761e-16
-3.616794341e-16
-3.588749304e-16
-3.560703521e-16
-3.532654839e-16
-3.504600779e-16
-3.476539048e-16
-3.448467339e-16
-3.420383456e-16
-3.392285453e-16
-3.36417113e-16
-3.336038524e-16
-3.307885602e-16
-3.279710452e-16
-3.251510973e-16
-3.223286056e-16
-3.195034399e-16
-3.166753955e-16
-3.138443305e-16
-3.110100593e-16
-3.081724455e-16
-3.053313583e-16
-3.024867071e-16
-2.996383584e-16
-2.967861823e-16
-2.939300674e-16
-2.910698919e-16
-2.882055452e-16
-2.853369603e-16
-2.824640397e-16
-2.795867214e-16
-2.767049179e-16
-2.738185231e-16
-2.70927484e-16
-2.680317217e-16
-2.651312294e-16
-2.622259105e-16
-2.593157183e-16
-2.564006162e-16
-2.534805625e-16
-2.505555093e-16
-2.47625448e-16
-2.446903532e-16
-2.417502082e-16
-2.388049895e-16
-2.358546735e-16
-2.328992799e-16
-2.299388015e-16
-2.269732544e-16
-2.240026414e-16
-2.210269593e-16
-2.180462471e-16
-2.15060505e-16
-2.120697851e-16
-2.090740824e-16
-2.0607346e-16
-2.030679365e-16
-2.00057574e-16
-1.970424407e-16
-1.940225647e-16
-1.909980184e-16
-1.879688589e-16
-1.849351544e-16
-1.818969568e-16
-1.788543678e-16
-1.75807469e-16
-1.727563232e-16
-1.697010445e-16
-1.666416932e-16
-1.635783733e-16
-1.605111862e-16
-1.574402678e-16
-1.543657304e-16
-1.512876777e-16
-1.482062126e-16
-1.451214858e-16
-1.420336119e-16
-1.389427269e-16
-1.358489561e-16
-1.327524463e-16
-1.296533351e-16
-1.265517681e-16
-1.234479049e-16
-1.203419064e-16
-1.17233934e-16
-1.141241276e-16
-1.11012682e-16
-1.078997679e-16
-1.047855752e-16
-1.0167029e-16
-9.855407789e-17
-9.543711311e-17
-9.231959807e-17
-8.920172653e-17
-8.608373169e-17
-8.296580607e-17
-7.984814119e-17
-7.673095454e-17
-7.361447829e-17
-7.049891864e-17
-6.738449458e-17
-6.427143396e-17
-6.115996742e-17
-5.805033432e-17
-5.494277743e-17
-5.183752532e-17
-4.873482869e-17
-4.563495795e-17
-4.253813772e-17
-3.944463898e-17
-3.635471598e-17
-3.326863571e-17
-3.018664553e-17
-2.71090148e-17
-2.403602652e-17
-2.096795188e-17
-1.790506609e-17
-1.484764614e-17
-1.179597736e-17
-8.750337773e-18
-5.710996746e-18
-2.678257042e-18
3.475828558e-19
3.366233892e-18
6.377399585e-18
9.380786438e-18
1.237608424e-17
1.536299474e-17
1.834122527e-17
2.131046718e-17
2.427041358e-17
2.722075701e-17
3.0161189e-17
3.309138936e-17
3.60110371e-17
3.891979228e-17
4.181731583e-17
4.470326009e-17
4.757732608e-17
5.043901342e-17
5.328795429e-17
5.612372115e-17
5.894580761e-17
6.175366277e-17
6.45466793e-17
6.73242066e-17
7.008546356e-17
7.282953719e-17
7.555537435e-17
7.826177977e-17
8.09473916e-17
8.361068467e-17
8.624993942e-17
8.886329348e-17
9.144864895e-17
9.400382346e-17
9.652620525e-17
9.901364489e-17
1.014606496e-16
1.038699602e-16
1.062201119e-16
1.085246868e-16
1.107531748e-16
1.128762032e-16
1.148582721e-16
1.167220322e-16
1.311952389e-16
1.612750745e-16
1.844817248e-16
2.0378789e-16
2.192180658e-16
2.309363329e-16
2.39143089e-16
2.440448507e-16
2.458610727e-16
2.448197911e-16
2.411549652e-16
2.351045053e-16
2.269084122e-16
2.168064408e-16
2.050365779e-16
1.918333013e-16
1.774262454e-16
1.620388593e-16
1.458872233e-16
1.291791221e-16
1.121131508e-16
9.487795927e-17
7.76515899e-17
6.060094103e-17
4.388122393e-17
2.763562347e-17
1.19948718e-17
-2.923016366e-18
-1.70130149e-17
-3.018327837e-17
-4.235531199e-17
-5.346406488e-17
-6.34579942e-17
-7.229904842e-17
-7.996260366e-17
-8.64373123e-17
-9.172487524e-17
-9.5839722e-17
-9.880858855e-17
-1.006699864e-16
-1.0147355e-16
-1.012792606e-16
-1.001565419e-16
-9.818321876e-17
-9.544435475e-17
-9.203096615e-17
-8.803861621e-17
-8.356592859e-17
-7.871302211e-17
-7.357989389e-17
-6.826480818e-17
-6.286268725e-17
-5.746357003e-17
-5.215117864e-17
-4.700160566e-17
-4.208219694e-17
-3.745062477e-17
-3.315421163e-17
-2.922949977e-17
-2.570209344e-17
-2.258677086e-17
-1.988786343e-17
-1.759988118e-17
-1.570836648e-17
-1.419093038e-17
-1.301845746e-17
-1.215640748e-17
-1.15661908e-17
-1.120655884e-17
-1.103496934e-17
-1.100888486e-17
-1.108696677e-17
-1.123013345e-17
-1.14024613e-17
-1.157191002e-17
-1.171086485e-17
-1.179649254e-17
-1.181092072e-17
-1.17412434e-17
-1.157938013e-17
-1.132179509e-17
-1.096911306e-17
-1.05256386e-17
-9.998821932e-18
-9.398677185e-18
-8.737186186e-18
-8.027704318e-18
-7.284387789e-18
-6.521654829e-18
-5.753697304e-18
-4.994048901e-18
-4.255219492e-18
-3.548397527e-18
-2.883225399e-18
-2.267642988e-18
-1.70780125e-18
-1.208038417e-18
-7.709147337e-19
-3.972984114e-19
-8.649478243e-20
1.635891305e-19
3.562536197e-19
4.957973056e-19
5.872985428e-19
6.363951546e-19
6.490694447e-19
6.314450945e-19
5.896009698e-19
5.294063721e-19
4.563804369e-19
3.755782967e-19
2.915041032e-19
2.080515587e-19
1.284703985e-19
5.535716464e-20
-9.331997505e-21
-6.424998719e-20
-1.086115439e-19
-1.421341718e-19
-1.649703903e-19
-1.776349501e-19
-1.80930106e-19
-1.758717781e-19
-1.636193525e-19
-1.454109182e-19
-1.225056653e-19
-9.613462751e-20
-6.746012369e-20
-3.754456379e-20
-7.327965683e-21
2.238598776e-20
5.093635615e-20
7.780464902e-20
1.026090495e-19
1.250942661e-19
1.451182295e-19
1.626366157e-19
1.776864729e-19
1.903695255e-19
2.008360645e-19
2.092700099e-19
2.158754905e-19
2.208650547e-19
2.244500241e-19
2.268325695e-19
2.281996287e-19
2.287187077e-19
2.285348022e-19
2.277689738e-19
2.265177657e-19
2.248536427e-19
2.228260317e-19
2.204630231e-19
2.177734831e-19
2.14749443e-19
2.113688626e-19
2.075985698e-19
2.033973238e-19
1.987189703e-19
1.93515705e-19
1.877411748e-19
1.813535361e-19
1.743184204e-19
1.666113676e-19
1.582201561e-19
1.491465586e-19
1.394075703e-19
1.290361558e-19
1.180813829e-19
1.066079345e-19
9.46950965e-20
8.243527963e-20
6.993202877e-20
5.729771755e-20
4.465113337e-20
3.211469566e-20
1.981194679e-20
7.864986317e-21
-3.607900752e-21
-1.449424298e-20
-2.468921141e-20
-3.4096994e-20
-4.263186329e-20
-5.021898479e-20
-5.67947985e-20
-6.230739868e-20
-6.671644814e-20
-6.999327506e-20
-7.212073533e-20
-7.309315832e-20
-7.291624118e-20
-7.160714542e-20
-6.919444309e-20
-6.571828661e-20
-6.123052632e-20
-5.579475629e-20
-4.948629064e-20
-4.239207682e-20
-3.461035838e-20
-2.625011944e-20
-1.743019053e-20
-8.278197671e-21
1.070913386e-21
1.04766167e-20
1.979483052e-20
2.888015245e-20
3.758832032e-20
4.577872751e-20
5.331703117e-20
6.007772236e-20
6.594653573e-20
7.082268402e-20
7.462084131e-20
7.727278093e-20
7.872861687e-20
7.895767817e-20
7.794885978e-20
7.571067403e-20
7.227067654e-20
6.767462937e-20
6.198521619e-20
5.528041476e-20
4.765160135e-20
3.920142625e-20
3.004151164e-20
2.029009418e-20
1.006958877e-20
-4.95794427e-22
-1.128222131e-20
-2.216834394e-20
-3.303709547e-20
-4.377712877e-20
-5.428401143e-20
-6.44609363e-20
-7.421916176e-20
-8.347804298e-20
-9.21650112e-20
-1.002152333e-19
-1.075714431e-19
-1.14183816e-19
-1.200099589e-19
-1.250147989e-19
-1.291702406e-19
-1.324540337e-19
-1.34847636e-19
-1.36333536e-19
-1.368932709e-19
-1.365102243e-19
-1.351953745e-19
-1.329940117e-19
)
;

boundaryField
{
    inlet
    {
        type            calculated;
        value           uniform 0;
    }
    outlet
    {
        type            calculated;
        value           uniform -1.276514687e-19;
    }
    wall
    {
        type            empty;
    }
}


// ************************************************************************* //
