/*--------------------------------*- C++ -*----------------------------------*\
  =========                 |
  \\      /  F ield         | OpenFOAM: The Open Source CFD Toolbox
   \\    /   O peration     | Website:  https://openfoam.org
    \\  /    A nd           | Version:  7
     \\/     M anipulation  |
\*---------------------------------------------------------------------------*/
FoamFile
{
    version     2.0;
    format      ascii;
    class       volScalarField;
    location    "0.000558243009";
    object      ddt0(rho,NC3H7CHO);
}
// * * * * * * * * * * * * * * * * * * * * * * * * * * * * * * * * * * * * * //

dimensions      [1 -3 -1 0 0 0 0];

internalField   nonuniform List<scalar> 
1500
(
-8.622851624e-12
-2.609952095e-11
-3.939109667e-11
-3.999413628e-11
-3.073265662e-11
-1.904954741e-11
-9.911514196e-12
-4.452489077e-12
-1.773082752e-12
-6.593966654e-13
-2.686614021e-13
-1.640704089e-13
-1.572400286e-13
-1.780837968e-13
-2.029647617e-13
-2.245954445e-13
-2.408160576e-13
-2.510071162e-13
-2.550513641e-13
-2.530387735e-13
-2.451864545e-13
-2.318123704e-13
-2.133208525e-13
-1.901904756e-13
-1.629623027e-13
-1.322286254e-13
-9.862270522e-14
-6.280992624e-14
-2.548042164e-14
1.265715221e-14
5.088133447e-14
8.846393094e-14
1.246773181e-13
1.588037377e-13
1.901469884e-13
2.180465953e-13
2.418941492e-13
2.611508838e-13
2.753655874e-13
2.841914783e-13
2.874006859e-13
2.848950809e-13
2.767124384e-13
2.630272709e-13
2.441460982e-13
2.204973659e-13
1.926166261e-13
1.611279434e-13
1.267227079e-13
9.013712605e-14
5.212965679e-14
1.345948758e-14
-2.513306418e-14
-6.294360148e-14
-9.931781585e-14
-1.336627041e-13
-1.654549447e-13
-1.942466978e-13
-2.196691541e-13
-2.414341523e-13
-2.593341389e-13
-2.732406495e-13
-2.831014488e-13
-2.889363365e-13
-2.908316579e-13
-2.889335034e-13
-2.834396777e-13
-2.74590584e-13
-2.626592822e-13
-2.479410971e-13
-2.307432414e-13
-2.113749795e-13
-1.9013886e-13
-1.673235082e-13
-1.431983689e-13
-1.180106278e-13
-9.198439693e-14
-6.532203256e-14
-3.820730828e-14
-1.081001758e-14
1.670852736e-14
4.418966124e-14
7.147176443e-14
9.838541113e-14
1.247496736e-13
1.503698861e-13
1.750370334e-13
1.985288083e-13
2.206122553e-13
2.410478163e-13
2.595945209e-13
2.760160043e-13
2.900870111e-13
3.016000189e-13
3.103716513e-13
3.162485293e-13
3.19112303e-13
3.188835992e-13
3.15524734e-13
3.090410661e-13
2.994809725e-13
2.869344979e-13
2.715307987e-13
2.534345833e-13
2.328417932e-13
2.099748038e-13
1.850774417e-13
1.584100859e-13
1.30245086e-13
1.00862674e-13
7.054746662e-14
3.958556965e-14
8.262244835e-15
-2.314000031e-14
-5.434303948e-14
-8.507466143e-14
-1.150701704e-13
-1.440741898e-13
-1.718427529e-13
-1.981456923e-13
-2.227692811e-13
-2.455190123e-13
-2.662223701e-13
-2.847314085e-13
-3.009249513e-13
-3.147102597e-13
-3.260240483e-13
-3.348327834e-13
-3.411322695e-13
-3.449465815e-13
-3.46326457e-13
-3.45347303e-13
-3.421069816e-13
-3.367235409e-13
-3.293330247e-13
-3.200874613e-13
-3.091530579e-13
-2.967085918e-13
-2.829438992e-13
-2.680583437e-13
-2.522590902e-13
-2.357590116e-13
-2.187740702e-13
-2.015200316e-13
-1.842084713e-13
-1.6704207e-13
-1.502093066e-13
-1.338787436e-13
-1.181931954e-13
-1.032641194e-13
-8.91666366e-14
-7.593559337e-14
-6.35630739e-14
-5.19976776e-14
-4.114585281e-14
-3.087537899e-14
-2.102104012e-14
-1.139228106e-14
-1.782585726e-15
8.019917447e-15
1.822115793e-14
2.900981488e-14
4.054667661e-14
5.295536617e-14
6.631504779e-14
8.065566336e-14
9.595602658e-14
1.12144973e-13
1.291055153e-13
1.466817309e-13
1.64687911e-13
1.829192905e-13
2.011635487e-13
2.192122097e-13
2.368710432e-13
2.539686337e-13
2.703624881e-13
2.859422062e-13
3.006295473e-13
3.143754956e-13
3.27154732e-13
3.389581485e-13
3.497842357e-13
3.596302886e-13
3.684843607e-13
3.763188116e-13
3.830861352e-13
3.887174381e-13
3.931237552e-13
3.962000187e-13
3.978313054e-13
3.97900771e-13
3.962985778e-13
3.92931095e-13
3.877297135e-13
3.806586653e-13
3.717214084e-13
3.609652273e-13
3.484837914e-13
3.344174057e-13
3.189508165e-13
3.023082615e-13
2.847455973e-13
2.665393749e-13
2.47972847e-13
2.293193494e-13
2.108237616e-13
1.926834712e-13
1.750307051e-13
1.579186721e-13
1.413142507e-13
1.250999224e-13
1.090871613e-13
9.304259292e-14
7.67266584e-14
5.994260536e-14
4.259151446e-14
2.472687182e-14
6.600329716e-15
-1.131067644e-14
-2.830290452e-14
-4.348292865e-14
-5.584366946e-14
-6.438271487e-14
-6.825775266e-14
-6.696808145e-14
-6.054466052e-14
-4.972536641e-14
-3.608801234e-14
-2.211202821e-14
-1.11414049e-14
-7.226928625e-15
-1.483530324e-14
-3.842569229e-14
-8.1910322e-14
-1.480333031e-13
-2.377192454e-13
-3.494587314e-13
-4.78808873e-13
-6.180923833e-13
-7.563760263e-13
-8.797999337e-13
-9.723133854e-13
-1.016868195e-12
-9.971128339e-13
-8.997319235e-13
-7.173812687e-13
-4.523472337e-13
-1.170024904e-13
2.745786277e-13
5.194503545e-13
5.494339504e-13
5.767709721e-13
6.035589577e-13
6.302292102e-13
6.568291976e-13
6.832925611e-13
7.095664991e-13
7.356067428e-13
7.613842309e-13
7.868756061e-13
8.120565455e-13
8.36902874e-13
8.613858103e-13
8.854757331e-13
9.09142847e-13
9.323545583e-13
9.55077765e-13
9.772781548e-13
9.989210418e-13
1.019969867e-12
1.040385431e-12
1.060129188e-12
1.079159751e-12
1.097436147e-12
1.114911615e-12
1.131541828e-12
1.147277948e-12
1.16207177e-12
1.175869483e-12
1.188618587e-12
1.200261569e-12
1.210740122e-12
1.219993259e-12
1.227955301e-12
1.234560075e-12
1.239737565e-12
1.243413152e-12
1.24551032e-12
1.245948549e-12
1.244642632e-12
1.241503401e-12
1.236436878e-12
1.229345684e-12
1.220125402e-12
1.208666711e-12
1.194855734e-12
1.178570847e-12
1.159683619e-12
1.138060188e-12
1.113557272e-12
1.086024806e-12
1.05530259e-12
1.021223105e-12
9.836076722e-13
9.422672165e-13
8.97001187e-13
8.47597129e-13
7.938302549e-13
7.354618708e-13
6.722372901e-13
6.03888312e-13
5.301278368e-13
4.506528413e-13
3.651395038e-13
2.732459057e-13
1.746063153e-13
6.883270019e-14
-4.448649589e-14
-1.657911111e-13
-2.955468294e-13
-4.342498225e-13
-5.824267566e-13
-7.40640102e-13
-9.094845697e-13
-1.089596038e-12
-1.281647072e-12
-1.486354894e-12
-1.704480271e-12
-1.936832757e-12
-2.184271317e-12
-2.447708213e-12
-2.72811337e-12
-3.02651251e-12
-3.343998691e-12
-3.681727019e-12
-4.040925268e-12
-4.422892663e-12
-4.829004976e-12
-5.260720865e-12
-5.719583011e-12
-6.207223007e-12
-6.725366909e-12
-7.275837929e-12
-7.860561997e-12
-8.48157303e-12
-9.141015035e-12
-9.841150397e-12
-1.05843623e-11
-1.137316106e-11
-1.221018882e-11
-1.309822323e-11
-1.404018675e-11
-1.503914558e-11
-1.609832148e-11
-1.722109281e-11
-1.841099912e-11
-1.967175024e-11
-2.100722842e-11
-2.242149351e-11
-2.391878893e-11
-2.550354596e-11
-2.718038718e-11
-2.895413367e-11
-3.082980638e-11
-3.281263248e-11
-3.490804603e-11
-3.712169737e-11
-3.945944797e-11
-4.192738027e-11
-4.453179631e-11
-4.727922159e-11
-5.017640544e-11
-5.323032208e-11
-5.64481731e-11
-5.983738278e-11
-6.340560416e-11
-6.716071096e-11
-7.111080156e-11
-7.526419167e-11
-7.962941362e-11
-8.421521231e-11
-8.9030539e-11
-9.408454824e-11
-9.938658717e-11
-1.049461907e-10
-1.107730758e-10
-1.16877127e-10
-1.232683902e-10
-1.299570621e-10
-1.369534736e-10
-1.442680824e-10
-1.519114557e-10
-1.598942588e-10
-1.682272339e-10
-1.769211902e-10
-1.859869791e-10
-1.954354822e-10
-2.052775891e-10
-2.155241752e-10
-2.261860841e-10
-2.372741021e-10
-2.487989401e-10
-2.607712045e-10
-2.732013785e-10
-2.860997926e-10
-2.994766022e-10
-3.133417626e-10
-3.277049985e-10
-3.425757817e-10
-3.579633029e-10
-3.738764423e-10
-3.90323748e-10
-4.073134001e-10
-4.24853192e-10
-4.429505012e-10
-4.616122566e-10
-4.808449212e-10
-5.006544593e-10
-5.210463151e-10
-5.420253879e-10
-5.635960032e-10
-5.857618988e-10
-6.085261961e-10
-6.318913804e-10
-6.558592834e-10
-6.80431067e-10
-7.056072e-10
-7.313874499e-10
-7.577708698e-10
-7.847557796e-10
-8.123397654e-10
-8.40519669e-10
-8.692915812e-10
-8.986508379e-10
-9.285920279e-10
-9.591089818e-10
-9.901947894e-10
-1.021841796e-09
-1.054041618e-09
-1.086785158e-09
-1.12006261e-09
-1.15386349e-09
-1.188176643e-09
-1.222990284e-09
-1.258292011e-09
-1.294068842e-09
-1.330307245e-09
-1.36699318e-09
-1.404112133e-09
-1.44164916e-09
-1.479588939e-09
-1.517915808e-09
-1.556613838e-09
-1.595666858e-09
-1.635058545e-09
-1.674772474e-09
-1.71479218e-09
-1.755101234e-09
-1.795683316e-09
-1.836522282e-09
-1.877602265e-09
-1.918907726e-09
-1.960423574e-09
-2.00213523e-09
-2.044028729e-09
-2.086090832e-09
-2.128309101e-09
-2.170672016e-09
-2.213169078e-09
-2.25579093e-09
-2.298529464e-09
-2.34137793e-09
-2.384331075e-09
-2.42738526e-09
-2.470538591e-09
-2.513791045e-09
-2.557144624e-09
-2.600603487e-09
-2.644174079e-09
-2.687865316e-09
-2.731688716e-09
-2.775658554e-09
-2.819792043e-09
-2.864109477e-09
-2.908634427e-09
-2.953393901e-09
-2.998418536e-09
-3.043742781e-09
-3.089405083e-09
-3.135448083e-09
-3.181918831e-09
-3.228868981e-09
-3.276355e-09
-3.324438391e-09
-3.373185928e-09
-3.422669854e-09
-3.472968127e-09
-3.524164694e-09
-3.576349663e-09
-3.629619616e-09
-3.684077853e-09
-3.739834624e-09
-3.797007413e-09
-3.855721227e-09
-3.916108865e-09
-3.978311165e-09
-4.042477364e-09
-4.108765298e-09
-4.177341663e-09
-4.248382234e-09
-4.322070668e-09
-4.398614158e-09
-4.47765321e-09
-4.560020163e-09
-4.646364098e-09
-4.737641603e-09
-4.832594038e-09
-4.931466377e-09
-5.034532386e-09
-5.142077565e-09
-5.254402413e-09
-5.371822259e-09
-5.494667938e-09
-5.623286478e-09
-5.758041578e-09
-5.899311548e-09
-6.04765258e-09
-6.205823595e-09
-6.372074093e-09
-6.546822854e-09
-6.73054502e-09
-6.923134399e-09
-7.125200908e-09
-7.337670693e-09
-7.561074752e-09
-7.795961122e-09
-8.04290214e-09
-8.302492501e-09
-8.575349437e-09
-8.862113557e-09
-9.16344959e-09
-9.480047207e-09
-9.812622185e-09
-1.016191713e-08
-1.05287027e-08
-1.091377871e-08
-1.131797518e-08
-1.174215364e-08
-1.218720854e-08
-1.265406848e-08
-1.314369792e-08
-1.365709859e-08
-1.419531143e-08
-1.475941818e-08
-1.535054357e-08
-1.596985729e-08
-1.661857625e-08
-1.729796713e-08
-1.800934878e-08
-1.875409525e-08
-1.953363866e-08
-2.034947261e-08
-2.120315566e-08
-2.209631543e-08
-2.303065276e-08
-2.400794666e-08
-2.50300596e-08
-2.609894353e-08
-2.721664693e-08
-2.838532235e-08
-2.960723588e-08
-3.088477761e-08
-3.22204744e-08
-3.36170046e-08
-3.507721655e-08
-3.660415022e-08
-3.820106423e-08
-3.987146871e-08
-4.161916642e-08
-4.344830367e-08
-4.536343411e-08
-4.736959873e-08
-4.947242678e-08
-5.167826325e-08
-5.399432997e-08
-5.642893015e-08
-5.899170806e-08
-6.169397877e-08
-6.454914863e-08
-6.757324891e-08
-7.078561768e-08
-7.420976697e-08
-7.78744891e-08
-8.181526713e-08
-8.607607279e-08
-9.071165983e-08
-9.579048804e-08
-1.013984522e-07
-1.076436367e-07
-1.14662378e-07
-1.226269932e-07
-1.317556321e-07
-1.423248348e-07
-1.546855334e-07
-1.692834438e-07
-1.866850414e-07
-2.076106502e-07
-2.329765815e-07
-2.639487899e-07
-3.020111768e-07
-3.490525308e-07
-4.074771562e-07
-4.80345622e-07
-5.715537858e-07
-6.860604554e-07
-8.301768182e-07
-1.011934319e-06
-1.24155212e-06
-1.532030922e-06
-1.899907112e-06
-2.366210209e-06
-2.957678023e-06
-3.708298402e-06
-4.661264569e-06
-5.871454165e-06
-7.40857082e-06
-9.361123768e-06
-1.184146648e-05
-1.499217317e-05
-1.899410376e-05
-2.407659847e-05
-3.053035626e-05
-3.872369205e-05
-4.912304346e-05
-6.231881672e-05
-7.905793106e-05
-0.0001002847564
-0.0001271925517
-0.0001612880161
-0.0002044721859
-0.0002591416573
-0.000328315031
-0.0004157905572
-0.0005263422602
-0.0006659633504
-0.000842167514
-0.001064360695
-0.001344298301
-0.001696645247
-0.002139658953
-0.002696018021
-0.003393821881
-0.004267788545
-0.005360678661
-0.006724973193
-0.008424828846
-0.01053833113
-0.0131600334
-0.0164038058
-0.0204059014
-0.02532819135
-0.03136141879
-0.03872825676
-0.04768593761
-0.05852792846
-0.07158431772
-0.0872201755
-0.1058312048
-0.1278358599
-0.1536630748
-0.1837347643
-0.2184423834
-0.2581170609
-0.3029931875
-0.3531658277
-0.4085429439
-0.4687939976
-0.5332973539
-0.6010892509
-0.6708178207
-0.740705845
-0.8085257871
-0.8715911452
-0.926764456
-0.9704841818
-0.99880608
-1.007449053
-0.9918488222
-0.9471768374
-0.8683592122
-0.7500452794
-0.5865567761
-0.371862081
-0.09990076334
0.2336872235
0.625890736
1.111587999
1.628853739
2.538732626
3.465014083
4.316180563
3.714785507
4.82960325
5.0780727
4.790959097
4.706945163
5.711164391
7.060206098
5.978005105
1.687416466
-3.936279442
-8.798388414
-13.59958671
-12.41362541
-15.36345821
-17.69487953
-19.68026041
-18.08000338
-19.23306789
-20.12919843
-20.82788077
-17.76661793
-17.60308041
-16.96379034
-15.96762637
-14.72870321
-13.34571635
-11.91781094
-9.960207468
-8.605929352
-7.24212792
-6.055264518
-5.00617627
-4.101148822
-3.331771079
-2.686066936
-2.131677842
-1.634379525
-1.242865628
-0.9364059906
-0.6990280155
-0.5168463731
-0.3836334306
-0.2864011004
-0.2154117126
-0.1638079012
-0.1194873865
-0.08678073305
-0.06442136902
-0.0474391609
-0.03472024033
-0.02530494286
-0.01839480658
-0.01335366931
-0.009675156582
-0.007016628092
-0.005089358874
-0.003693146229
-0.002681891236
-0.001949378334
-0.001418574801
-0.001033698985
-0.0007543977299
-0.0005514970225
-0.0004039134945
-0.000296408371
-0.0002179687661
-0.0001606325332
-0.0001186397064
-8.782003316e-05
-6.515109263e-05
-4.843959581e-05
-3.609155989e-05
-2.694657574e-05
-2.015826435e-05
-1.510800862e-05
-1.134265116e-05
-8.529459091e-06
-6.423525856e-06
-4.844140559e-06
-3.657627388e-06
-2.764858492e-06
-2.092147311e-06
-1.584591239e-06
-1.20119243e-06
-9.112723199e-07
-6.918296883e-07
-5.255886374e-07
-3.995524316e-07
-3.039292766e-07
-2.313323584e-07
-1.761826922e-07
-1.342623669e-07
-1.023796173e-07
-7.811726245e-08
-5.964344139e-08
-4.556900717e-08
-3.483993592e-08
-2.66560615e-08
-2.040963474e-08
-1.563883206e-08
-1.199255148e-08
-9.203739206e-09
-7.0691694e-09
-5.434108779e-09
-4.180681339e-09
-3.219037066e-09
-2.480646504e-09
-1.91320759e-09
-1.476775683e-09
-1.140821821e-09
-8.819956452e-10
-6.82423379e-10
-5.284122406e-10
-4.094636848e-10
-3.17521403e-10
-2.463978577e-10
-1.913366588e-10
-1.486783555e-10
-1.156050055e-10
-8.994479221e-11
-7.002244814e-11
-5.454464354e-11
-4.251209009e-11
-3.315207075e-11
-2.586660236e-11
-2.019257238e-11
-1.577105645e-11
-1.232368096e-11
-9.634397268e-12
-7.535416445e-12
-5.896345678e-12
-4.615790757e-12
-3.61485969e-12
-2.83213322e-12
-2.219768153e-12
-1.740476199e-12
-1.365180026e-12
-1.071193515e-12
-8.408081015e-13
-6.601938885e-13
-5.185449885e-13
-4.074143397e-13
-3.201958159e-13
-2.517207136e-13
-1.979432331e-13
-1.556951833e-13
-1.224945864e-13
-9.63962631e-14
-7.587513576e-14
-5.973504154e-14
-4.70374468e-14
-3.704569402e-14
-2.918137748e-14
-2.299019423e-14
-1.811520119e-14
-1.427586303e-14
-1.12516306e-14
-8.869064798e-15
-6.991736749e-15
-5.512302496e-15
-4.346281862e-15
-3.427173251e-15
-2.702616202e-15
-2.131375997e-15
-1.680973464e-15
-1.325821359e-15
-1.045758638e-15
-8.248973528e-16
-6.507152439e-16
-5.133415173e-16
-4.049945356e-16
-3.1953902e-16
-2.521372903e-16
-1.989745208e-16
-1.570422637e-16
-1.239678574e-16
-9.787997175e-17
-7.73026221e-17
-6.107161225e-17
-4.826865402e-17
-3.81694174e-17
-3.020256238e-17
-2.391742856e-17
-1.895855082e-17
-1.504555781e-17
-1.195731543e-17
-9.519418621e-18
-7.594323791e-18
-6.073564227e-18
-4.871608983e-18
-3.921017894e-18
-3.168619563e-18
-2.572495963e-18
-2.099603764e-18
-1.723897885e-18
-1.424851271e-18
-1.186287438e-18
-9.954595191e-19
-8.423240301e-19
-7.189680537e-19
-6.191576577e-19
-5.379818277e-19
-4.715716902e-19
-4.168792178e-19
-3.715028824e-19
-3.335501746e-19
-3.015293343e-19
-2.742640758e-19
-2.508263668e-19
-2.304835515e-19
-2.126566774e-19
-1.968877547e-19
-1.828139641e-19
-1.701473252e-19
-1.586587643e-19
-1.481655578e-19
-1.385214711e-19
-1.296090063e-19
-1.21333304e-19
-1.136173601e-19
-1.063982735e-19
-9.962428268e-20
-9.325245692e-20
-8.724687233e-20
-8.157717841e-20
-7.621748419e-20
-7.114546503e-20
-6.634167497e-20
-6.17890038e-20
-5.747224047e-20
-5.337773713e-20
-4.949314278e-20
-4.5807189e-20
-4.230952022e-20
-3.899056222e-20
-3.584141517e-20
-3.285376396e-20
-3.001980883e-20
-2.733221265e-20
-2.478404994e-20
-2.236876893e-20
-2.008015808e-20
-1.791232242e-20
-1.585965727e-20
-1.39168278e-20
-1.207875344e-20
-1.034059133e-20
-8.697723181e-21
-7.145740745e-21
-5.680436339e-21
-4.297791953e-21
-2.993969807e-21
-1.765303597e-21
-6.082910001e-22
4.80415007e-22
1.504014378e-21
2.465564058e-21
3.367986514e-21
4.214075121e-21
5.006499554e-21
5.747812337e-21
6.440453164e-21
7.086754348e-21
7.688945175e-21
8.249156981e-21
8.769426299e-21
9.251700127e-21
9.697839392e-21
1.010962279e-20
1.048875043e-20
1.083684695e-20
1.115546453e-20
1.144608757e-20
1.171013373e-20
1.194895757e-20
1.216385344e-20
1.235605816e-20
1.252675279e-20
1.267706594e-20
1.280807527e-20
1.292081022e-20
1.301625383e-20
1.309534482e-20
1.315897958e-20
1.320801365e-20
1.324326379e-20
1.326550999e-20
1.327549615e-20
1.327393219e-20
1.326149537e-20
1.323883197e-20
1.320655838e-20
1.316526235e-20
1.311550446e-20
1.305781902e-20
1.299271528e-20
1.292067857e-20
1.284217138e-20
1.275763414e-20
1.266748662e-20
1.257212815e-20
1.247193906e-20
1.236728123e-20
1.225849907e-20
1.214592005e-20
1.202985577e-20
1.191060223e-20
1.178844086e-20
1.166363896e-20
1.15364505e-20
1.140711639e-20
1.127586542e-20
1.114291459e-20
1.100846957e-20
1.087272537e-20
1.073586668e-20
1.059806837e-20
1.045949601e-20
1.032030621e-20
1.018064689e-20
1.004065785e-20
9.900471052e-21
9.760211051e-21
9.619995253e-21
9.479934265e-21
9.340132181e-21
9.200686805e-21
9.061690179e-21
8.923228631e-21
8.785383052e-21
8.648229187e-21
8.511837901e-21
8.376275468e-21
8.241603622e-21
8.107879802e-21
7.975157546e-21
7.843486359e-21
7.712912194e-21
7.583477456e-21
7.455221239e-21
7.328179434e-21
7.202384966e-21
7.077867824e-21
6.954655342e-21
6.832772222e-21
6.712240739e-21
6.593080786e-21
6.475310037e-21
6.358944107e-21
6.243996571e-21
6.130479121e-21
6.018401634e-21
5.90777233e-21
5.798597761e-21
5.690883043e-21
5.584631762e-21
5.479846164e-21
5.376527241e-21
5.274673446e-21
5.174286078e-21
5.075361319e-21
4.977895684e-21
4.88188459e-21
4.787323062e-21
4.694204684e-21
4.602522559e-21
4.512268956e-21
4.423435514e-21
4.336013216e-21
4.249992439e-21
4.165362986e-21
4.082114153e-21
4.000234738e-21
3.919713111e-21
3.840537233e-21
3.762694657e-21
3.686172589e-21
3.610957946e-21
3.537037333e-21
3.464397108e-21
3.393023358e-21
3.322901986e-21
3.254018693e-21
3.186359015e-21
3.119908327e-21
3.054651884e-21
2.990574821e-21
2.927662195e-21
2.865898978e-21
2.805270082e-21
2.745760372e-21
2.687354687e-21
2.630037845e-21
2.573794672e-21
2.518609986e-21
2.46446862e-21
2.411355443e-21
2.359255371e-21
2.308153351e-21
2.258034409e-21
2.208883622e-21
2.160686146e-21
2.113427212e-21
2.067092147e-21
2.02166637e-21
1.977135393e-21
1.933484844e-21
1.890700458e-21
1.848768088e-21
1.807673698e-21
1.767403392e-21
1.727943386e-21
1.689280037e-21
1.651399835e-21
1.614289409e-21
1.577935526e-21
1.542325098e-21
1.507445177e-21
1.473282969e-21
1.439825818e-21
1.407061228e-21
1.37497685e-21
1.343560492e-21
1.312800107e-21
1.28268381e-21
1.253199866e-21
1.224336696e-21
1.196082877e-21
1.168427139e-21
1.141358375e-21
1.114865623e-21
1.088938083e-21
1.063565109e-21
1.038736213e-21
1.014441055e-21
9.906694514e-22
9.67411371e-22
9.446569393e-22
9.223964264e-22
9.006202565e-22
8.793190039e-22
8.584833923e-22
8.381042881e-22
8.181727092e-22
7.986798173e-22
7.796169175e-22
7.609754612e-22
7.427470354e-22
7.249233693e-22
7.074963323e-22
6.904579327e-22
6.73800311e-22
6.575157465e-22
6.415966478e-22
6.260355586e-22
6.108251507e-22
5.95958225e-22
5.814277099e-22
5.672266592e-22
5.533482513e-22
5.39785786e-22
5.26532684e-22
5.135824868e-22
5.009288533e-22
4.88565558e-22
4.764864896e-22
4.646856526e-22
4.531571613e-22
4.418952401e-22
4.308942227e-22
4.201485482e-22
4.096527632e-22
3.994015175e-22
3.893895609e-22
3.796117467e-22
3.70063028e-22
3.607384533e-22
3.516331697e-22
3.427424183e-22
3.34061534e-22
3.255859429e-22
3.173111621e-22
3.092327986e-22
3.013465467e-22
2.936481872e-22
2.861335872e-22
2.787986968e-22
2.716395479e-22
2.646522551e-22
2.57833013e-22
2.511780949e-22
2.446838509e-22
2.38346709e-22
2.32163171e-22
2.26129814e-22
2.202432888e-22
2.145003176e-22
2.088976939e-22
2.034322818e-22
1.981010141e-22
1.929008929e-22
1.878289868e-22
1.828824324e-22
1.780584314e-22
1.733542514e-22
1.687672243e-22
1.642947464e-22
1.599342776e-22
1.556833409e-22
1.515395215e-22
1.475004681e-22
1.435638902e-22
1.397275598e-22
1.359893109e-22
1.323470383e-22
1.287986983e-22
1.253423105e-22
1.219759553e-22
1.186977758e-22
1.155059773e-22
1.123988506e-22
1.093746834e-22
1.064318946e-22
1.035689464e-22
1.007843681e-22
9.807675798e-23
9.544478942e-23
9.288720385e-23
9.040283619e-23
8.799061053e-23
8.564956082e-23
8.337885046e-23
8.117780265e-23
7.904593664e-23
7.698300819e-23
7.498905475e-23
7.306439984e-23
7.120963338e-23
6.942534396e-23
6.771188431e-23
6.606758219e-23
6.4489447e-23
6.296327745e-23
6.147042443e-23
5.996328854e-23
5.836135412e-23
5.653081687e-23
5.4267782e-23
2.958942974e-23
2.800800649e-23
1.846982676e-23
1.204043057e-23
7.767217112e-24
4.948252168e-24
3.108083831e-24
1.920542917e-24
1.163830081e-24
6.885206277e-25
3.948918865e-25
2.170561109e-25
1.119503518e-25
5.176079111e-26
1.875723094e-26
1.803995379e-27
-5.973526019e-27
-8.733280709e-27
-8.927147818e-27
-7.954214039e-27
-6.577307787e-27
-5.18455227e-27
-3.950696033e-27
-2.934523068e-27
-2.136147335e-27
-1.529560142e-27
-1.080256012e-27
-7.54098814e-28
-5.212173948e-28
-3.57223628e-28
-2.430924439e-28
-1.644565292e-28
-1.10742815e-28
-7.431639604e-29
-4.976312536e-29
-3.329096474e-29
-2.22796184e-29
-1.493417896e-29
-1.003946282e-29
-6.776087568e-30
-4.596498673e-30
-3.136287685e-30
-2.153461111e-30
-1.488790092e-30
-1.035777036e-30
-7.250919288e-31
-5.107156288e-31
-3.616837122e-31
-2.571731101e-31
-1.837523099e-31
-1.317452382e-31
-9.372511687e-32
-6.792321586e-32
-4.90448659e-32
-3.516988053e-32
-2.476383087e-32
-1.78846781e-32
-1.257406985e-32
-9.288856151e-33
-6.420118674e-33
-4.930947499e-33
-3.413006302e-33
-2.443488296e-33
-1.663549531e-33
-1.089468397e-33
-6.662278683e-34
-5.241713457e-34
-4.20784347e-34
-2.849235905e-34
-2.191265196e-34
-5.597913033e-35
-1.638585988e-34
1.174945419e-34
-2.207967381e-34
1.050646373e-35
-8.065830473e-35
-7.306226522e-35
-1.086350336e-34
-7.079587198e-35
-1.850435834e-34
-2.606413739e-34
-4.986908716e-35
1.207116017e-34
-1.057733139e-34
1.153672747e-34
3.119775874e-35
7.256588002e-35
5.337941486e-35
-2.020087375e-35
2.476751501e-35
-1.748881683e-35
-1.535662348e-35
1.457454153e-35
-1.116796022e-35
7.558189399e-39
2.343653574e-36
-9.294660063e-36
-4.119471244e-37
-3.299785778e-36
5.24967183e-36
7.6732729e-37
-2.50782472e-38
-2.937672078e-36
-3.854962001e-36
7.799232881e-37
-2.09465825e-37
3.533460105e-36
-2.735448631e-36
1.504135424e-36
-2.433546497e-36
1.730661131e-36
-1.295773225e-36
-2.535319159e-36
-9.598615396e-37
1.735784711e-36
-1.551170007e-36
1.565974655e-36
8.004519759e-37
-1.695018861e-36
-1.828190005e-36
-8.682572085e-37
5.226758529e-38
-1.676533092e-36
-1.412582411e-36
-9.222895264e-37
-1.095658571e-36
-2.362458482e-36
3.228917399e-37
-1.213984749e-36
5.245970625e-37
1.829972351e-38
-1.505127281e-36
-2.663400096e-36
-2.703862034e-36
-1.448032183e-36
-4.745434619e-37
5.907189614e-36
-2.003347909e-36
-1.252208989e-37
-1.24690835e-36
-1.52518648e-36
9.702834388e-38
6.417124162e-37
-5.864226848e-36
-8.504953966e-37
-2.243751057e-36
-4.037362918e-36
1.405629316e-37
5.245933887e-37
-1.232126627e-39
-4.575741048e-36
1.010389038e-37
5.001580233e-36
5.883258666e-36
-5.107297272e-37
-9.198820102e-38
-2.310338539e-36
1.721738514e-37
1.276715141e-36
1.525289906e-36
-5.331399182e-36
-1.264060354e-37
-3.579828015e-36
-3.589239158e-36
7.199341666e-38
6.223342264e-39
-8.433497591e-37
-9.392877124e-36
-1.987921085e-36
1.233835538e-36
-5.957552945e-37
-6.103346688e-37
-1.112719951e-36
-3.489752642e-37
5.691958395e-38
-2.905115709e-36
1.239467095e-37
-8.370499687e-37
-5.229508236e-36
3.027411584e-37
-1.403577168e-37
6.8347487e-36
-7.898022142e-36
-1.351667887e-36
-2.678955305e-36
8.38154434e-36
1.157293338e-37
-3.192547725e-38
-1.677042507e-36
1.223367758e-36
7.39279856e-36
-9.557329225e-37
3.35417256e-36
7.268248859e-36
-1.25708984e-36
3.385024839e-36
-1.929118993e-37
-2.006281877e-38
-3.028976626e-36
-4.757823871e-38
-6.132008182e-36
-4.278045572e-38
-2.622039839e-36
-7.745366591e-39
5.657129737e-36
-5.50931135e-37
-4.484530174e-37
3.352579117e-38
3.369594777e-36
-1.920094058e-36
-2.708562473e-36
1.410989811e-36
-5.386890134e-38
1.026517494e-37
-5.78864647e-38
-4.902777746e-39
-7.045470082e-38
9.164096195e-37
-3.793760066e-40
1.017329043e-36
2.86102285e-37
-1.989627123e-37
2.100541276e-37
-3.294797821e-37
-1.373377394e-38
-3.803621796e-37
-1.799069999e-36
-2.174689844e-36
1.742672693e-37
-8.876341323e-37
-1.790819798e-36
1.795967186e-36
-1.620814865e-36
5.096562646e-37
2.160739911e-36
-2.121157082e-36
7.238893067e-37
-2.633836005e-38
-4.963136213e-36
1.919745871e-38
3.826262422e-38
-3.128455064e-37
-1.758458888e-36
3.916580673e-38
-3.79043139e-36
1.182820086e-36
-5.8673253e-36
6.677066805e-38
5.271410235e-39
3.777853924e-36
)
;

boundaryField
{
    inlet
    {
        type            calculated;
        value           uniform 0;
    }
    outlet
    {
        type            calculated;
        value           uniform 3.777853974e-36;
    }
    wall
    {
        type            empty;
    }
}


// ************************************************************************* //
