/*--------------------------------*- C++ -*----------------------------------*\
  =========                 |
  \\      /  F ield         | OpenFOAM: The Open Source CFD Toolbox
   \\    /   O peration     | Website:  https://openfoam.org
    \\  /    A nd           | Version:  7
     \\/     M anipulation  |
\*---------------------------------------------------------------------------*/
FoamFile
{
    version     2.0;
    format      ascii;
    class       volScalarField;
    location    "0.000558243009";
    object      ddt0(rho,C2H4);
}
// * * * * * * * * * * * * * * * * * * * * * * * * * * * * * * * * * * * * * //

dimensions      [1 -3 -1 0 0 0 0];

internalField   nonuniform List<scalar> 
1500
(
-2.086582481e-06
-6.483141966e-06
-1.000436242e-05
-1.04198689e-05
-8.233751027e-06
-5.257045193e-06
-2.821157437e-06
-1.308582276e-06
-5.381550654e-07
-2.053662953e-07
-8.304159352e-08
-4.732688242e-08
-4.247596956e-08
-4.691288866e-08
-5.310945502e-08
-5.867515617e-08
-6.288968758e-08
-6.554580543e-08
-6.660073521e-08
-6.607495787e-08
-6.402446863e-08
-6.053214385e-08
-5.570353369e-08
-4.966360011e-08
-4.255362735e-08
-3.452827775e-08
-2.575291201e-08
-1.640127906e-08
-6.653590113e-09
3.305106338e-09
1.328641846e-08
2.310019612e-08
3.255643819e-08
4.146771964e-08
4.965224443e-08
5.693754571e-08
6.316475228e-08
6.819317847e-08
7.190500131e-08
7.420966726e-08
7.50476735e-08
7.439339591e-08
7.225669861e-08
6.868315115e-08
6.375279377e-08
5.757750467e-08
5.029713004e-08
4.207462916e-08
3.309054177e-08
2.353711016e-08
1.361238735e-08
3.514616626e-09
-6.562886208e-09
-1.643618502e-08
-2.593442323e-08
-3.490275241e-08
-4.320451996e-08
-5.072278346e-08
-5.73612373e-08
-6.304463535e-08
-6.771877986e-08
-7.135012565e-08
-7.392503268e-08
-7.544867117e-08
-7.594358813e-08
-7.544793137e-08
-7.401335292e-08
-7.170262813e-08
-6.858705993e-08
-6.474376511e-08
-6.025296489e-08
-5.519541609e-08
-4.965012189e-08
-4.369244971e-08
-3.739275848e-08
-3.081559475e-08
-2.401947984e-08
-1.705725426e-08
-9.976905876e-09
-2.822772232e-09
4.363024031e-09
1.153905131e-08
1.866310659e-08
2.569094848e-08
3.257533208e-08
3.926542508e-08
4.570664849e-08
5.184095209e-08
5.760750519e-08
6.294375311e-08
6.778677227e-08
7.207484181e-08
7.574914175e-08
7.875548271e-08
8.104598039e-08
8.258058364e-08
8.332838821e-08
8.326866779e-08
8.239158213e-08
8.069853053e-08
7.820214548e-08
7.492593989e-08
7.090363987e-08
6.617825494e-08
6.08009505e-08
5.482979445e-08
4.832845605e-08
4.136492703e-08
3.401032483e-08
2.633782522e-08
1.842174883e-08
1.033680524e-08
2.157483524e-09
-6.042446241e-09
-1.41903582e-08
-2.221517112e-08
-3.004776608e-08
-3.762145771e-08
-4.487254015e-08
-5.174091071e-08
-5.817075983e-08
-6.411129678e-08
-6.951747333e-08
-7.435065685e-08
-7.857920526e-08
-8.217890206e-08
-8.513322178e-08
-8.743340795e-08
-8.907836493e-08
-9.007437939e-08
-9.043470023e-08
-9.017901804e-08
-8.933288722e-08
-8.792713309e-08
-8.599728021e-08
-8.3583027e-08
-8.072777443e-08
-7.747820591e-08
-7.388389247e-08
-6.999689297e-08
-6.587130362e-08
-6.156271088e-08
-5.712750804e-08
-5.262203699e-08
-4.810154563e-08
-4.361895896e-08
-3.922349374e-08
-3.495916588e-08
-3.086326781e-08
-2.696490405e-08
-2.328369051e-08
-1.982872655e-08
-1.659794514e-08
-1.357792423e-08
-1.074423511e-08
-8.062351536e-09
-5.489131508e-09
-2.974816077e-09
-4.654787228e-10
2.094205675e-09
4.758010602e-09
7.57520502e-09
1.058777483e-08
1.382800121e-08
1.731655593e-08
2.106125766e-08
2.505657399e-08
2.928392223e-08
3.371275377e-08
3.830235347e-08
4.300422781e-08
4.77649075e-08
5.252895023e-08
5.724191746e-08
6.185309077e-08
6.631770914e-08
7.059856407e-08
7.466682713e-08
7.850206772e-08
8.20914866e-08
8.542847223e-08
8.851064629e-08
9.133761471e-08
9.390867107e-08
9.622069587e-08
9.826647148e-08
1.000335929e-07
1.015040701e-07
1.026546723e-07
1.034579634e-07
1.038839341e-07
1.039020734e-07
1.034836997e-07
1.026043638e-07
1.0124615e-07
9.939971835e-08
9.706597186e-08
9.425725771e-08
9.099803541e-08
8.732494224e-08
8.328621995e-08
7.894042295e-08
7.435436189e-08
6.960025137e-08
6.475205585e-08
5.988115025e-08
5.5051479e-08
5.0314585e-08
4.570499608e-08
4.123660632e-08
3.690076701e-08
3.266679099e-08
2.848544928e-08
2.429580194e-08
2.003529391e-08
1.565254817e-08
1.112173432e-08
6.456818976e-09
1.723514991e-09
-2.953506999e-09
-7.390612602e-09
-1.135450537e-08
-1.45822111e-08
-1.681197439e-08
-1.782384588e-08
-1.748707972e-08
-1.58097602e-08
-1.298456567e-08
-9.42350355e-09
-5.774016466e-09
-2.909305998e-09
-1.887136009e-09
-3.873877039e-09
-1.003393063e-08
-2.138888072e-08
-3.865529681e-08
-6.207468299e-08
-9.125317878e-08
-1.250317409e-07
-1.614094794e-07
-1.975435439e-07
-2.298493592e-07
-2.542253653e-07
-2.664290874e-07
-2.626233054e-07
-2.401017668e-07
-1.980645502e-07
-1.382415214e-07
-6.41454253e-08
2.199446137e-08
7.474982662e-08
8.234781483e-08
8.755182147e-08
9.213571156e-08
9.6535845e-08
1.008446679e-07
1.050583024e-07
1.091500166e-07
1.130857611e-07
1.16835767e-07
1.203761994e-07
1.236876799e-07
1.267541268e-07
1.295598126e-07
1.320890615e-07
1.343256781e-07
1.362519441e-07
1.378491499e-07
1.390974527e-07
1.399761593e-07
1.404633768e-07
1.405358294e-07
1.401697097e-07
1.393397423e-07
1.380200028e-07
1.36182262e-07
1.337980987e-07
1.308370493e-07
1.272679168e-07
1.230571023e-07
1.181703805e-07
1.125712062e-07
1.062217843e-07
9.908253785e-08
9.111154442e-08
8.22656004e-08
7.249930611e-08
6.17648342e-08
5.001260118e-08
3.71906853e-08
2.324461408e-08
8.117526041e-09
-8.250079948e-09
-2.592000064e-08
-4.495730395e-08
-6.542978945e-08
-8.740791234e-08
-1.109656324e-07
-1.361801738e-07
-1.631316682e-07
-1.919041956e-07
-2.225850847e-07
-2.552657749e-07
-2.900410543e-07
-3.270100349e-07
-3.66275912e-07
-4.079461966e-07
-4.521327669e-07
-4.989519078e-07
-5.485246402e-07
-6.009771712e-07
-6.564401297e-07
-7.150498554e-07
-7.769474728e-07
-8.42280012e-07
-9.11199518e-07
-9.838643589e-07
-1.060438604e-06
-1.141092107e-06
-1.226001494e-06
-1.315349233e-06
-1.409324541e-06
-1.508123044e-06
-1.61194781e-06
-1.721008005e-06
-1.835520823e-06
-1.955709838e-06
-2.081806616e-06
-2.214049888e-06
-2.352686373e-06
-2.49797034e-06
-2.650163994e-06
-2.809537958e-06
-2.97637005e-06
-3.150947592e-06
-3.3335652e-06
-3.52452676e-06
-3.72414422e-06
-3.93273801e-06
-4.150637759e-06
-4.378181583e-06
-4.615716318e-06
-4.863597906e-06
-5.12219096e-06
-5.391869064e-06
-5.673014953e-06
-5.966019795e-06
-6.27128412e-06
-6.589217101e-06
-6.920236887e-06
-7.264770451e-06
-7.623253125e-06
-7.996129636e-06
-8.38385233e-06
-8.786882838e-06
-9.205690822e-06
-9.640753677e-06
-1.009255744e-05
-1.056159583e-05
-1.104837005e-05
-1.155338896e-05
-1.207716864e-05
-1.262023186e-05
-1.318310854e-05
-1.376633476e-05
-1.437045302e-05
-1.499601113e-05
-1.564356353e-05
-1.63136686e-05
-1.700689032e-05
-1.77237968e-05
-1.846496042e-05
-1.923095713e-05
-2.002236598e-05
-2.08397693e-05
-2.168375087e-05
-2.255489739e-05
-2.345379606e-05
-2.438103576e-05
-2.53372052e-05
-2.632289313e-05
-2.733868785e-05
-2.838517629e-05
-2.946294419e-05
-3.057257435e-05
-3.171464684e-05
-3.288973909e-05
-3.409842389e-05
-3.534126988e-05
-3.661884112e-05
-3.793169517e-05
-3.928038414e-05
-4.06654531e-05
-4.208744058e-05
-4.354687643e-05
-4.504428319e-05
-4.658017361e-05
-4.815505202e-05
-4.976941294e-05
-5.142374023e-05
-5.311850759e-05
-5.485417711e-05
-5.663120031e-05
-5.845001602e-05
-6.031105167e-05
-6.22147217e-05
-6.416142801e-05
-6.615156003e-05
-6.818549333e-05
-7.026359072e-05
-7.238620161e-05
-7.455366162e-05
-7.676629382e-05
-7.902440657e-05
-8.132829594e-05
-8.367824516e-05
-8.607452328e-05
-8.851738796e-05
-9.100708381e-05
-9.354384397e-05
-9.612789049e-05
-9.875943346e-05
-0.0001014386741
-0.0001041658037
-0.0001069410044
-0.0001097644509
-0.0001126363115
-0.0001155567478
-0.0001185259172
-0.0001215439744
-0.0001246110705
-0.000127727357
-0.0001308929864
-0.0001341081132
-0.0001373728958
-0.0001406874999
-0.000144052098
-0.0001474668737
-0.000150932022
-0.0001544477531
-0.0001580142946
-0.0001616318926
-0.0001653008163
-0.0001690213591
-0.0001727938432
-0.0001766186216
-0.0001804960809
-0.0001844266454
-0.0001884107808
-0.0001924489968
-0.000196541851
-0.0002006899541
-0.0002048939709
-0.0002091546297
-0.0002134727195
-0.0002178491003
-0.0002222847062
-0.0002267805477
-0.0002313377196
-0.0002359574055
-0.0002406408799
-0.00024538952
-0.000250204803
-0.0002550883196
-0.0002600417739
-0.000265066992
-0.0002701659306
-0.000275340678
-0.0002805934644
-0.000285926667
-0.0002913428186
-0.0002968446134
-0.0003024349134
-0.0003081167576
-0.0003138933689
-0.000319768162
-0.0003257447503
-0.0003318269564
-0.0003380188195
-0.0003443246009
-0.0003507487987
-0.0003572961537
-0.000363971657
-0.0003707805636
-0.000377728397
-0.0003848209642
-0.0003920643628
-0.0003994649922
-0.0004070295659
-0.0004147651195
-0.0004226790231
-0.0004307789943
-0.0004390731092
-0.0004475698128
-0.000456277933
-0.0004652066959
-0.0004743657326
-0.0004837650958
-0.0004934152794
-0.0005033272202
-0.0005135123231
-0.0005239824748
-0.0005347500537
-0.0005458279498
-0.0005572295825
-0.000568968915
-0.0005810604648
-0.0005935193298
-0.0006063611911
-0.0006196023206
-0.0006332595555
-0.0006473500306
-0.0006618956951
-0.0006768227982
-0.0006922486499
-0.0007082627884
-0.0007250032579
-0.0007422504267
-0.0007600220088
-0.0007783413829
-0.0007972328761
-0.0008167220766
-0.0008368357355
-0.0008576018726
-0.0008790498463
-0.0009012104865
-0.0009241153412
-0.0009478212302
-0.0009727458513
-0.0009985736744
-0.001025333377
-0.001053066836
-0.001081717213
-0.001111340928
-0.001142048935
-0.001173885762
-0.001206895306
-0.001241124101
-0.001276620882
-0.001313436549
-0.001351624284
-0.001391239693
-0.001432340959
-0.001474989078
-0.001519248026
-0.001565185044
-0.001612870916
-0.001662380255
-0.001713791876
-0.001767189195
-0.001822660658
-0.001880300276
-0.00194020817
-0.002002491262
-0.002067263981
-0.002134649136
-0.002204778867
-0.002277795737
-0.002353853997
-0.00243312099
-0.002515778806
-0.002602026111
-0.002692080292
-0.002786179857
-0.002884587245
-0.002987591951
-0.003095514189
-0.00320870902
-0.003327571094
-0.003452540112
-0.003584106987
-0.003722821016
-0.003869297986
-0.004024229535
-0.004188393768
-0.004362667555
-0.004548040467
-0.004745630832
-0.004956704044
-0.005182693596
-0.005425225105
-0.005686143839
-0.005967546204
-0.006271815802
-0.006601664714
-0.006960180687
-0.00735088119
-0.007777775232
-0.008245434045
-0.008759072084
-0.009324639381
-0.009948927509
-0.01063969046
-0.01140578297
-0.01225731863
-0.01320585055
-0.01426457778
-0.01544858123
-0.0167750931
-0.01826380457
-0.01993721723
-0.02182104418
-0.02394466795
-0.02634166297
-0.02905039172
-0.03211468475
-0.03558461611
-0.03951738743
-0.04397833561
-0.0490420812
-0.05479383593
-0.06133089298
-0.06876432219
-0.07722090039
-0.08684530646
-0.09780261884
-0.1102811529
-0.1244956862
-0.1406911213
-0.1591466422
-0.180180431
-0.2041550164
-0.2314833306
-0.2626355718
-0.2981469634
-0.3386265301
-0.3847670022
-0.437355997
-0.4972886076
-0.5655815806
-0.6433892387
-0.7320213442
-0.8329631047
-0.9478975284
-1.078730331
-1.227617648
-1.396996726
-1.589619815
-1.808591462
-2.057409276
-2.340008333
-2.660809112
-3.024768891
-3.437436293
-3.905008399
-4.434389668
-5.033251494
-5.710090629
-6.474284361
-7.336139355
-8.306930403
-9.398924052
-10.62538111
-12.00053031
-13.53950423
-15.25822628
-17.1732363
-19.30145036
-21.65978185
-24.26474329
-27.13183639
-30.27483982
-33.7049329
-37.42963242
-41.45165179
-45.76742936
-50.3656802
-55.2257751
-60.31610157
-65.5924785
-70.99673828
-76.45560895
-81.88004861
-87.16518926
-92.19103755
-96.82405295
-100.919686
-104.325851
-106.8873134
-108.4507571
-108.8702988
-108.0130968
-105.7645986
-102.033246
-96.75373789
-89.88918065
-81.43155407
-71.40045012
-59.84119774
-46.82068101
-32.42458172
-16.75388002
0.07677776336
17.9389934
36.68923004
56.17278658
76.21493578
97.92786595
119.7043822
149.4320867
174.6854808
193.2656003
187.3271213
219.0440604
242.7498539
259.0784524
267.278568
267.2248252
264.6819893
267.3045122
277.9487847
284.7465069
259.0872921
217.912523
167.0701049
69.29183579
-50.09065987
-170.3471567
-212.9452129
-337.581313
-477.6778597
-642.9075866
-597.152267
-817.7377812
-1046.616709
-1265.047015
-1458.493093
-1618.190992
-1734.12453
-1698.197688
-1724.506383
-1689.723846
-1645.570925
-1580.082321
-1497.753586
-1401.579005
-1294.504265
-1171.779469
-1023.508707
-883.8972362
-754.0809494
-635.4828936
-530.0549427
-442.4652731
-370.2452861
-310.8836077
-262.3559316
-213.27609
-172.4555268
-141.502892
-115.1330496
-93.05828341
-74.84678456
-59.98618878
-47.95597136
-38.23129693
-30.46027569
-24.24219671
-19.27787424
-15.32152823
-12.17296082
-9.670090989
-7.682282793
-6.104611953
-4.853046406
-3.86045787
-3.073311661
-2.449010116
-1.953709736
-1.560558415
-1.248275979
-1.000014333
-0.8024447447
-0.6450286786
-0.5194367568
-0.4190867145
-0.3387766845
-0.2743946387
-0.2226885725
-0.1810849268
-0.1475452988
-0.1204534684
-0.09852638844
-0.08074408626
-0.06629447286
-0.05452988965
-0.04493288911
-0.03708927553
-0.03066685131
-0.02539864654
-0.02106967181
-0.01750644038
-0.01456866866
-0.01214269103
-0.01013622574
-0.00847420637
-0.00709545534
-0.005950023672
-0.004997058931
-0.004203092749
-0.003540662304
-0.002987198221
-0.002524125474
-0.00213613499
-0.001810592358
-0.001537056914
-0.001306889892
-0.001112934586
-0.000949254871
-0.0008109211134
-0.0006938346172
-0.0005945834894
-0.0005103241461
-0.0004386837818
-0.0003776800045
-0.0003256545407
-0.0002812184928
-0.0002432070885
-0.0002106422389
-0.0001827015287
-0.0001586925065
-0.0001380313497
-0.0001202251411
-0.0001048571309
-9.157446846e-05
-8.007797891e-05
-7.01136346e-05
-6.14654321e-05
-5.394943623e-05
-4.740879408e-05
-4.170955581e-05
-3.673716733e-05
-3.239352306e-05
-2.859448612e-05
-2.5267799e-05
-2.235132094e-05
-1.979153881e-05
-1.75423075e-05
-1.556378273e-05
-1.382151596e-05
-1.228568544e-05
-1.093044164e-05
-9.733352438e-06
-8.674924524e-06
-7.738200137e-06
-6.90840904e-06
-6.172671733e-06
-5.519744504e-06
-4.939800726e-06
-4.424242799e-06
-3.965540325e-06
-3.557090647e-06
-3.193098527e-06
-2.868472226e-06
-2.578733623e-06
-2.319940395e-06
-2.088618566e-06
-1.881703982e-06
-1.696491465e-06
-1.530590594e-06
-1.381887212e-06
-1.248509871e-06
-1.128800573e-06
-1.021289202e-06
-9.246711914e-07
-8.377879546e-07
-7.596097679e-07
-6.892207505e-07
-6.258056849e-07
-5.686384384e-07
-5.170717808e-07
-4.705284238e-07
-4.284931304e-07
-3.905057513e-07
-3.561550846e-07
-3.250734495e-07
-2.969318885e-07
-2.714359327e-07
-2.483218293e-07
-2.273532238e-07
-2.083181993e-07
-1.910266584e-07
-1.753079929e-07
-1.610090166e-07
-1.479921209e-07
-1.361336259e-07
-1.253223397e-07
-1.154582479e-07
-1.064513454e-07
-9.822060648e-08
-9.069305564e-08
-8.380294582e-08
-7.749101133e-08
-7.170381708e-08
-6.639315896e-08
-6.151553414e-08
-5.703166931e-08
-5.290609148e-08
-4.910674936e-08
-4.560467033e-08
-4.237364939e-08
-3.938998144e-08
-3.663220743e-08
-3.408089334e-08
-3.171843233e-08
-2.952886096e-08
-2.749770431e-08
-2.561182208e-08
-2.385928776e-08
-2.222926219e-08
-2.071189235e-08
-1.929821645e-08
-1.798007761e-08
-1.675004245e-08
-1.560133854e-08
-1.452779071e-08
-1.352375777e-08
-1.258408591e-08
-1.170406514e-08
-1.087938531e-08
-1.010609774e-08
-9.380583418e-09
-8.699521719e-09
-8.059865097e-09
-7.458810085e-09
-6.893777722e-09
-6.362393382e-09
-5.862467833e-09
-5.391982845e-09
-4.949070452e-09
-4.532005011e-09
-4.139188241e-09
-3.769140043e-09
-3.420486295e-09
-3.091952364e-09
-2.782353098e-09
-2.490586512e-09
-2.21562431e-09
-1.956508289e-09
-1.712343501e-09
-1.482293895e-09
-1.265580013e-09
-1.061468128e-09
-8.692731049e-10
-6.883514071e-10
-5.180997035e-10
-3.579506778e-10
-2.073701119e-10
-6.585621799e-11
6.706464613e-11
1.918387609e-10
3.088864203e-10
4.186054457e-10
5.21371608e-10
6.175406189e-10
7.074478586e-10
7.914116637e-10
8.697328308e-10
9.426975533e-10
1.010576528e-09
1.073626561e-09
1.132091659e-09
1.186204083e-09
1.236182685e-09
1.282237434e-09
1.324567736e-09
1.363362477e-09
1.398801718e-09
1.431057126e-09
1.460292552e-09
1.486663538e-09
1.510317588e-09
1.531395764e-09
1.550032677e-09
1.566355637e-09
1.580487749e-09
1.592545184e-09
1.602639424e-09
1.610876425e-09
1.617356913e-09
1.622177787e-09
1.6254301e-09
1.627202296e-09
1.627578093e-09
1.62663768e-09
1.624456938e-09
1.62110773e-09
1.616660471e-09
1.611181984e-09
1.60473416e-09
1.597377846e-09
1.589170184e-09
1.580166238e-09
1.570417871e-09
1.559974708e-09
1.548884142e-09
1.537191704e-09
1.524940569e-09
1.512171759e-09
1.49892426e-09
1.485235679e-09
1.471142203e-09
1.456676584e-09
1.441871111e-09
1.426756744e-09
1.411361839e-09
1.39571477e-09
1.379841879e-09
1.363767923e-09
1.347516353e-09
1.331109737e-09
1.314569602e-09
1.297916424e-09
1.281169151e-09
1.264346499e-09
1.247465328e-09
1.230542079e-09
1.213592158e-09
1.196630488e-09
1.179670563e-09
1.162725588e-09
1.145807687e-09
1.128928525e-09
1.112099081e-09
1.095329425e-09
1.078629726e-09
1.062008644e-09
1.045474672e-09
1.029035996e-09
1.012699652e-09
9.964731065e-10
9.803626329e-10
9.643740846e-10
9.485131175e-10
9.327850687e-10
9.171945075e-10
9.017463307e-10
8.864444448e-10
8.712922465e-10
8.562933507e-10
8.414509951e-10
8.26767948e-10
8.122466766e-10
7.978899824e-10
7.836993673e-10
7.696768222e-10
7.558238505e-10
7.421419706e-10
7.286321519e-10
7.152953191e-10
7.021323543e-10
6.891436015e-10
6.76329552e-10
6.636909179e-10
6.51227839e-10
6.389396762e-10
6.26826881e-10
6.148889256e-10
6.031254005e-10
5.915359326e-10
5.801195175e-10
5.688756731e-10
5.578038924e-10
5.469029545e-10
5.361719854e-10
5.256102233e-10
5.15216076e-10
5.049886211e-10
4.949265556e-10
4.850288349e-10
4.752938056e-10
4.657202579e-10
4.563065134e-10
4.470511286e-10
4.379525641e-10
4.290092691e-10
4.202199052e-10
4.115829264e-10
4.030963139e-10
3.947585215e-10
3.865676736e-10
3.785221023e-10
3.706201727e-10
3.62860009e-10
3.552398622e-10
3.477581085e-10
3.404129034e-10
3.332026469e-10
3.26125398e-10
3.191793409e-10
3.123628009e-10
3.056738044e-10
2.991105793e-10
2.926713282e-10
2.863542706e-10
2.801576445e-10
2.740796945e-10
2.68118638e-10
2.622730065e-10
2.565406503e-10
2.509195649e-10
2.454083315e-10
2.400051869e-10
2.34708498e-10
2.295166614e-10
2.244279607e-10
2.194404535e-10
2.145524614e-10
2.097625319e-10
2.050690238e-10
2.004703816e-10
1.959650924e-10
1.915513107e-10
1.872275804e-10
1.829921871e-10
1.788437555e-10
1.747808041e-10
1.708017805e-10
1.669052657e-10
1.630896503e-10
1.593536299e-10
1.556957121e-10
1.521144177e-10
1.486085063e-10
1.451765906e-10
1.418171669e-10
1.385289475e-10
1.353105631e-10
1.32160727e-10
1.290782544e-10
1.260617828e-10
1.231101153e-10
1.20221965e-10
1.173960726e-10
1.146314071e-10
1.119266539e-10
1.092808075e-10
1.0669263e-10
1.041610699e-10
1.016849246e-10
9.926323113e-11
9.689490686e-11
9.45787022e-11
9.231373106e-11
9.009895931e-11
8.793333039e-11
8.581588502e-11
8.374578083e-11
8.172189414e-11
7.974326465e-11
7.780912786e-11
7.591843088e-11
7.407046495e-11
7.226431825e-11
7.049919381e-11
6.87740444e-11
6.708810327e-11
6.544055604e-11
6.383063549e-11
6.22574792e-11
6.072033119e-11
5.921847335e-11
5.775123575e-11
5.631783697e-11
5.491758681e-11
5.354974178e-11
5.221358237e-11
5.090845001e-11
4.963368818e-11
4.838883034e-11
4.717310046e-11
4.598584672e-11
4.482634039e-11
4.369399453e-11
4.258830041e-11
4.150879336e-11
4.045485269e-11
3.942591016e-11
3.842127715e-11
3.744047758e-11
3.648310914e-11
3.554856894e-11
3.463627803e-11
3.374581055e-11
3.287675038e-11
3.202857607e-11
3.120085506e-11
3.03931617e-11
2.960500345e-11
2.883598278e-11
2.808564599e-11
2.735344293e-11
2.66391566e-11
2.594227024e-11
2.526239556e-11
2.459914038e-11
2.395219947e-11
2.332125538e-11
2.270578907e-11
2.210555354e-11
2.152019576e-11
2.094938407e-11
2.039275756e-11
1.985003981e-11
1.932101476e-11
1.880524291e-11
1.83024439e-11
1.781236057e-11
1.733468091e-11
1.686914844e-11
1.64154624e-11
1.597335545e-11
1.554260758e-11
1.512296971e-11
1.471418314e-11
1.431607163e-11
1.392844406e-11
1.355101015e-11
1.318354072e-11
1.282581014e-11
1.247759246e-11
1.213871111e-11
1.180903763e-11
1.148843846e-11
1.117660262e-11
1.087351149e-11
1.057894578e-11
1.029275075e-11
1.001480713e-11
9.744916283e-12
9.482975646e-12
9.228890821e-12
8.982546908e-12
8.743798213e-12
8.512526694e-12
8.288679598e-12
8.07210991e-12
7.862726154e-12
7.660297377e-12
7.464513383e-12
7.275015624e-12
7.091174643e-12
6.911977831e-12
6.736149151e-12
6.561094479e-12
6.383869191e-12
6.198938552e-12
5.998809019e-12
5.772790114e-12
5.507467538e-12
2.857867609e-12
3.01583928e-12
1.988389849e-12
1.301673844e-12
8.467759599e-13
5.44620924e-13
3.460651142e-13
2.166720095e-13
1.330220855e-13
8.007541971e-14
4.740195845e-14
2.673715345e-14
1.455469044e-14
7.326418662e-15
3.370983234e-15
1.148325639e-15
-1.240144957e-17
-4.432608634e-16
-6.000037115e-16
-5.822853196e-16
-5.733616178e-16
-4.534382274e-16
-3.999954002e-16
-2.360206678e-16
-2.072226481e-16
-1.3547395e-16
-9.623236451e-17
-6.979225167e-17
-4.700975322e-17
-3.031654478e-17
-1.958856067e-17
-1.039038365e-17
-8.227343732e-18
-1.151317836e-18
9.193373265e-19
2.742320284e-18
-1.754619659e-18
-2.745064638e-19
2.541440957e-19
1.385576278e-18
1.233388293e-18
2.865040301e-18
-1.640394322e-18
-3.301771097e-18
1.397521111e-18
-2.615905153e-18
-5.554665231e-18
9.211308728e-18
-1.349077914e-17
-4.836663608e-18
1.833074378e-19
-8.233679009e-19
4.006074142e-18
-1.875785348e-18
2.576015679e-19
-5.220107888e-18
-1.286867544e-18
6.685077037e-18
5.974388317e-18
-5.336597961e-18
-1.033045297e-17
-9.570235267e-18
1.049324505e-18
-5.463075681e-18
-7.896577971e-19
-2.217939403e-18
1.738968813e-19
-4.231588375e-19
-2.067290178e-19
-9.325347579e-19
3.276886273e-19
-3.080773922e-19
1.292651881e-18
8.463913611e-19
-7.36431138e-19
-1.051205448e-18
2.353571767e-18
-2.251999566e-18
2.228103766e-18
-3.22162066e-18
2.126200191e-18
-4.643942617e-18
-1.418177599e-18
-1.20793379e-19
7.023938053e-19
-8.845882343e-19
-6.96538028e-19
-5.499673759e-19
-5.056642028e-19
-4.794509987e-19
1.097583833e-18
-9.569296242e-19
-6.513105142e-20
-6.991512607e-19
3.835822693e-20
8.616771203e-21
-2.018143098e-19
-1.427060621e-19
-1.101007681e-20
5.654925984e-20
-1.685632251e-20
4.280251027e-20
4.286422368e-20
-2.940634639e-20
-4.98444913e-20
-1.332537236e-19
-4.533660814e-20
-1.026243678e-19
1.284797156e-19
-8.95755628e-20
5.308415354e-20
5.066397825e-20
-6.602646215e-21
6.104934145e-20
-8.057602585e-20
-2.205998425e-20
6.636815428e-21
-1.381576356e-20
9.01849931e-21
-3.428835858e-21
4.599320633e-20
-8.953107326e-21
-1.717498739e-20
2.756453283e-21
-8.575901013e-20
1.522737843e-20
-1.692687609e-20
2.020696664e-20
-6.761455285e-20
-2.723049375e-20
-3.294060017e-21
4.668461155e-21
-9.742500208e-22
3.63754827e-20
-3.896908882e-20
-7.108119689e-21
-1.065592175e-19
-4.753138458e-20
7.961620039e-20
-8.738794218e-21
2.559386951e-20
1.967441499e-20
-1.630254316e-20
5.013453513e-20
7.134238302e-20
-5.761455362e-20
-7.389760329e-20
1.638130211e-19
1.025210967e-19
7.669747031e-20
7.941190373e-20
-7.455940241e-20
-2.775331096e-19
-1.516005991e-19
-9.044940134e-20
-2.455907588e-20
-7.280011912e-20
-4.723238588e-20
1.44828549e-19
4.377637824e-20
1.83299659e-19
-1.036045895e-20
2.352892919e-19
2.474751737e-19
4.681142039e-20
-1.412302515e-20
-6.740169853e-20
8.718724507e-21
2.212633633e-20
1.450989337e-19
-9.350349926e-21
1.153524372e-21
-1.059956612e-20
-3.450420954e-20
-4.475172627e-20
3.026075192e-20
1.152073128e-19
6.665472607e-20
1.599325702e-19
1.279813329e-19
8.586654413e-20
9.015774486e-20
1.442988238e-19
1.00832114e-19
2.228776614e-19
4.438585317e-20
5.275207035e-20
-6.10512414e-20
1.127777345e-19
-1.508218113e-20
9.751098573e-20
1.231297388e-19
-6.33935217e-21
1.292470789e-19
9.987459191e-20
8.798484227e-20
2.888135812e-20
4.501490485e-20
7.480215754e-20
-1.115440625e-19
-1.04240876e-19
-4.761941662e-20
2.266373628e-20
-3.166291588e-20
-4.469815736e-20
-4.58739656e-20
-4.304146792e-20
3.090139736e-20
1.399913965e-20
-3.088569631e-20
5.255865051e-20
6.536882631e-20
-2.848469787e-20
-2.885438744e-20
-2.808269379e-20
9.541016855e-20
-4.292908462e-20
2.062128705e-20
-1.499434005e-20
9.50369362e-21
1.28247658e-20
-9.713094854e-23
-1.621578279e-20
-7.71661817e-21
-1.906886369e-20
-2.397827734e-21
5.46935224e-20
-1.198868912e-20
2.952820413e-20
-1.963569e-20
-4.70089649e-20
-3.828040962e-20
3.769231627e-20
3.804880601e-20
-1.069249098e-19
3.414388825e-20
-4.517935232e-20
-1.317168088e-19
-1.150994834e-19
-1.056797947e-19
-1.89514301e-19
-1.331570988e-19
-1.80116571e-19
-1.467757674e-19
-1.131990397e-19
-2.627914774e-19
-2.459870714e-19
-8.400807539e-20
2.199526526e-21
-1.297933047e-19
)
;

boundaryField
{
    inlet
    {
        type            calculated;
        value           uniform 0;
    }
    outlet
    {
        type            calculated;
        value           uniform -1.297657999e-19;
    }
    wall
    {
        type            empty;
    }
}


// ************************************************************************* //
