/*--------------------------------*- C++ -*----------------------------------*\
  =========                 |
  \\      /  F ield         | OpenFOAM: The Open Source CFD Toolbox
   \\    /   O peration     | Website:  https://openfoam.org
    \\  /    A nd           | Version:  7
     \\/     M anipulation  |
\*---------------------------------------------------------------------------*/
FoamFile
{
    version     2.0;
    format      ascii;
    class       volScalarField;
    location    "0.000558243009";
    object      ddt0(rho,C2H3O1-2);
}
// * * * * * * * * * * * * * * * * * * * * * * * * * * * * * * * * * * * * * //

dimensions      [1 -3 -1 0 0 0 0];

internalField   nonuniform List<scalar> 
1500
(
-3.511553119e-40
-8.088658407e-40
-7.858820751e-40
-4.759233027e-40
-2.189150207e-40
-8.54244465e-41
-2.980277175e-41
-9.49070089e-42
-3.058620473e-42
-1.650406816e-42
-1.878237122e-42
-2.579170568e-42
-3.398882689e-42
-4.247161296e-42
-5.079809206e-42
-5.851768584e-42
-6.515781867e-42
-7.033356145e-42
-7.381649429e-42
-7.553618851e-42
-7.554236892e-42
-7.395483599e-42
-7.092044469e-42
-6.658639493e-42
-6.109066707e-42
-5.456506349e-42
-4.714417738e-42
-3.897425405e-42
-3.02182512e-42
-2.105592943e-42
-1.167964496e-42
-2.287584773e-43
6.92354119e-43
1.576486081e-42
2.405995423e-42
3.164777772e-42
3.838451183e-42
4.414486952e-42
4.882329741e-42
5.233534115e-42
5.461924264e-42
5.563763413e-42
5.537896395e-42
5.385824165e-42
5.1116835e-42
4.722118985e-42
4.226052915e-42
3.634374906e-42
2.959577435e-42
2.215364758e-42
1.416260155e-42
5.772314992e-43
-2.866512895e-43
-1.16052161e-42
-2.02998354e-42
-2.881342916e-42
-3.701805605e-42
-4.479645943e-42
-5.204346609e-42
-5.866714201e-42
-6.458972092e-42
-6.974826391e-42
-7.409501833e-42
-7.759745959e-42
-8.023798453e-42
-8.201323915e-42
-8.293310554e-42
-8.301939216e-42
-8.230426619e-42
-8.082848673e-42
-7.863952782e-42
-7.578970203e-42
-7.233438338e-42
-6.833042085e-42
-6.383480614e-42
-5.890364121e-42
-5.359144814e-42
-4.795082642e-42
-4.203242219e-42
-3.588515976e-42
-2.955667229e-42
-2.309386186e-42
-1.654350419e-42
-9.952819075e-43
-3.369944268e-43
3.155752728e-43
9.57356015e-43
1.583150505e-42
2.187663367e-42
2.765548755e-42
3.311476062e-42
3.820210672e-42
4.286705605e-42
4.706199589e-42
5.074317136e-42
5.387165151e-42
5.641421498e-42
5.834410612e-42
5.96416303e-42
6.02945607e-42
6.029833961e-42
5.965606881e-42
5.837829429e-42
5.648260474e-42
5.399307257e-42
5.093957517e-42
4.735704104e-42
4.328466662e-42
3.876514563e-42
3.384394785e-42
2.856867355e-42
2.298849438e-42
1.715368508e-42
1.111523221e-42
4.924503591e-43
-1.367047754e-43
-7.708167376e-43
-1.404809777e-42
-2.03369079e-42
-2.652586481e-42
-3.256784982e-42
-3.841781007e-42
-4.403323216e-42
-4.937461603e-42
-5.440592609e-42
-5.909499716e-42
-6.341387705e-42
-6.73390906e-42
-7.085182108e-42
-7.393800797e-42
-7.658836842e-42
-7.879835633e-42
-8.056807157e-42
-8.190213401e-42
-8.280953604e-42
-8.330347993e-42
-8.340120019e-42
-8.312376765e-42
-8.249585913e-42
-8.154547798e-42
-8.03036026e-42
-7.88037414e-42
-7.708137903e-42
-7.517329659e-42
-7.311676943e-42
-7.094864717e-42
-6.870434092e-42
-6.641675125e-42
-6.411518775e-42
-6.182433494e-42
-5.956333009e-42
-5.734501754e-42
-5.517544368e-42
-5.305364141e-42
-5.097174796e-42
-4.891546991e-42
-4.686490191e-42
-4.479566377e-42
-4.268031685e-42
-4.048998003e-42
-3.819606322e-42
-3.577201106e-42
-3.319495243e-42
-3.044714731e-42
-2.751713732e-42
-2.440051394e-42
-2.110025771e-42
-1.762661615e-42
-1.399653137e-42
-1.02326599e-42
-6.362057041e-43
-2.41463234e-43
1.578499275e-43
5.586638385e-43
9.580955962e-43
1.353565519e-42
1.742874905e-42
2.124238264e-42
2.49626845e-42
2.857916937e-42
3.208376993e-42
3.54696085e-42
3.872965265e-42
4.185541696e-42
4.483586576e-42
4.765665609e-42
5.02998279e-42
5.274398464e-42
5.496497471e-42
5.693700852e-42
5.863411144e-42
6.003177136e-42
6.110862539e-42
6.184803139e-42
6.223939785e-42
6.227917077e-42
6.197142825e-42
6.132807736e-42
6.03686777e-42
5.911993532e-42
5.761493248e-42
5.589211754e-42
5.399407991e-42
5.196610063e-42
4.985443686e-42
4.770432646e-42
4.555768893e-42
4.345058878e-42
4.141058407e-42
3.945419926e-42
3.758485407e-42
3.579165686e-42
3.404949135e-42
3.232079743e-42
3.05592981e-42
2.87157036e-42
2.674513007e-42
2.461560576e-42
2.231666149e-42
1.98667083e-42
1.731768853e-42
1.475548023e-42
1.229473509e-42
1.006730875e-42
8.204153969e-43
6.8114647e-43
5.942902257e-43
5.570782303e-43
5.560014161e-43
5.649235573e-43
5.443818654e-43
4.425150086e-43
1.979645966e-43
-2.550575465e-43
-9.795708761e-43
-2.026809819e-42
-3.426017655e-42
-5.174001698e-42
-7.225678994e-42
-9.487048596e-42
-1.18121041e-41
-1.400522039e-41
-1.583049182e-41
-1.702982508e-41
-1.735152389e-41
-1.659235464e-41
-1.46483048e-41
-1.156595389e-41
-7.499471944e-42
-2.4555469e-42
8.560318411e-43
1.638263447e-42
1.963569027e-42
2.212045604e-42
2.461145741e-42
2.722680592e-42
2.992432114e-42
3.263531213e-42
3.530252412e-42
3.789126684e-42
4.038438109e-42
4.277414371e-42
4.505677219e-42
4.722811046e-42
4.92829072e-42
5.121466695e-42
5.301537383e-42
5.467626623e-42
5.618795888e-42
5.754074712e-42
5.872436936e-42
5.972785742e-42
6.054014726e-42
6.114937573e-42
6.154348086e-42
6.170898135e-42
6.16325413e-42
6.129960881e-42
6.069538714e-42
5.980360602e-42
5.860783452e-42
5.709023255e-42
5.523234046e-42
5.301468628e-42
5.04163683e-42
4.741583882e-42
4.399022509e-42
4.011515374e-42
3.576524108e-42
3.091365557e-42
2.553195167e-42
1.959017819e-42
1.30566803e-42
5.898338167e-43
-1.920171181e-43
-1.04359958e-42
-1.968807504e-42
-2.971779254e-42
-4.056882767e-42
-5.22869232e-42
-6.492069003e-42
-7.852112854e-42
-9.314230806e-42
-1.088408501e-41
-1.256766993e-41
-1.437129998e-41
-1.630163262e-41
-1.836567854e-41
-2.057081135e-41
-2.292479931e-41
-2.54358463e-41
-2.811254388e-41
-3.096397528e-41
-3.399965654e-41
-3.722962931e-41
-4.066440571e-41
-4.431507609e-41
-4.819327506e-41
-5.231120009e-41
-5.668169739e-41
-6.131820702e-41
-6.623484426e-41
-7.144638952e-41
-7.696838004e-41
-8.28170273e-41
-8.90093761e-41
-9.556320065e-41
-1.024971415e-40
-1.098306637e-40
-1.175841365e-40
-1.257788211e-40
-1.344369197e-40
-1.435816322e-40
-1.532370874e-40
-1.634285351e-40
-1.741822062e-40
-1.855254806e-40
-1.974868215e-40
-2.100958304e-40
-2.233833228e-40
-2.373813004e-40
-2.521229921e-40
-2.676429065e-40
-2.839768243e-40
-3.011618441e-40
-3.1923642e-40
-3.382403324e-40
-3.582147792e-40
-3.792023472e-40
-4.012470575e-40
-4.243943773e-40
-4.48691207e-40
-4.741859757e-40
-5.009285318e-40
-5.289702824e-40
-5.583641192e-40
-5.891644135e-40
-6.214270965e-40
-6.552096014e-40
-6.905708647e-40
-7.275713427e-40
-7.662729924e-40
-8.067392366e-40
-8.490350041e-40
-8.932266537e-40
-9.393819991e-40
-9.875702213e-40
-1.037861958e-39
-1.090329104e-39
-1.145044917e-39
-1.202083896e-39
-1.26152178e-39
-1.32343547e-39
-1.387902978e-39
-1.455003405e-39
-1.52481679e-39
-1.597424174e-39
-1.672907388e-39
-1.751349106e-39
-1.832832657e-39
-1.917442e-39
-2.005261635e-39
-2.09637648e-39
-2.190871827e-39
-2.288833156e-39
-2.390346079e-39
-2.495496281e-39
-2.604369304e-39
-2.717050501e-39
-2.833624932e-39
-2.954177137e-39
-3.078791131e-39
-3.207550195e-39
-3.340536826e-39
-3.477832481e-39
-3.619517587e-39
-3.765671256e-39
-3.916371285e-39
-4.071693952e-39
-4.231713848e-39
-4.396503809e-39
-4.566134698e-39
-4.740675378e-39
-4.920192442e-39
-5.104750202e-39
-5.294410457e-39
-5.489232423e-39
-5.689272622e-39
-5.894584674e-39
-6.105219273e-39
-6.321224028e-39
-6.542643336e-39
-6.769518368e-39
-7.001886809e-39
-7.239782942e-39
-7.483237517e-39
-7.732277556e-39
-7.986926479e-39
-8.247203897e-39
-8.513125653e-39
-8.784703783e-39
-9.061946378e-39
-9.344857766e-39
-9.633438359e-39
-9.92768469e-39
-1.022758948e-38
-1.053314171e-38
-1.084432652e-38
-1.116112545e-38
-1.148351648e-38
-1.181147401e-38
-1.214496916e-38
-1.248396979e-38
-1.282844068e-38
-1.317834363e-38
-1.353363784e-38
-1.389427985e-38
-1.426022404e-38
-1.463142263e-38
-1.50078261e-38
-1.538938348e-38
-1.577604252e-38
-1.616775018e-38
-1.656445284e-38
-1.696609679e-38
-1.737262859e-38
-1.778399541e-38
-1.820014555e-38
-1.862102893e-38
-1.904659748e-38
-1.947680569e-38
-1.99116112e-38
-2.03509752e-38
-2.079486337e-38
-2.124324592e-38
-2.169609874e-38
-2.215340388e-38
-2.261515009e-38
-2.308133372e-38
-2.355195947e-38
-2.402704083e-38
-2.450660144e-38
-2.499067524e-38
-2.547930789e-38
-2.597255721e-38
-2.647049428e-38
-2.697320451e-38
-2.748078823e-38
-2.79933619e-38
-2.851105904e-38
-2.903403137e-38
-2.956244983e-38
-3.009650554e-38
-3.06364111e-38
-3.118240171e-38
-3.173473633e-38
-3.229369883e-38
-3.285959944e-38
-3.343277596e-38
-3.401359479e-38
-3.460245283e-38
-3.519977861e-38
-3.580603356e-38
-3.642171387e-38
-3.704735158e-38
-3.768351659e-38
-3.833081799e-38
-3.898990586e-38
-3.966147307e-38
-4.03462569e-38
-4.104504095e-38
-4.175865727e-38
-4.248798825e-38
-4.323396862e-38
-4.399758785e-38
-4.477989261e-38
-4.558198877e-38
-4.640504421e-38
-4.725029202e-38
-4.811903213e-38
-4.901263518e-38
-4.993254533e-38
-5.088028355e-38
-5.185745321e-38
-5.286574895e-38
-5.390697074e-38
-5.498304396e-38
-5.60960432e-38
-5.724820147e-38
-5.844187569e-38
-5.967942189e-38
-6.096305857e-38
-6.229659513e-38
-6.368395351e-38
-6.512466528e-38
-6.662682478e-38
-6.820874952e-38
-6.984119231e-38
-7.152851981e-38
-7.327422939e-38
-7.508043619e-38
-7.694932328e-38
-7.888346127e-38
-8.088610454e-38
-8.296156522e-38
-8.511462954e-38
-8.734815333e-38
-8.966709049e-38
-9.212759437e-38
-9.468707161e-38
-9.735338546e-38
-1.001360863e-37
-1.030440564e-37
-1.060817599e-37
-1.092521569e-37
-1.125604114e-37
-1.160130077e-37
-1.196164198e-37
-1.233772051e-37
-1.273021931e-37
-1.313985782e-37
-1.356739512e-37
-1.401363136e-37
-1.447940991e-37
-1.496562007e-37
-1.547320184e-37
-1.600315218e-37
-1.655653297e-37
-1.713448161e-37
-1.77382244e-37
-1.836909347e-37
-1.902854907e-37
-1.971820789e-37
-2.043988057e-37
-2.119561998e-37
-2.198778535e-37
-2.281912594e-37
-2.369289173e-37
-2.461297958e-37
-2.558412647e-37
-2.661216594e-37
-2.770436803e-37
-2.886989124e-37
-3.012038327e-37
-3.147078113e-37
-3.294037624e-37
-3.455423482e-37
-3.63450917e-37
-3.835587745e-37
-4.064309224e-37
-4.328131019e-37
-4.636919751e-37
-5.003755224e-37
-5.446004916e-37
-5.986760006e-37
-6.656755075e-37
-7.496934172e-37
-8.561881292e-37
-9.924406117e-37
-1.168167395e-36
-1.396339891e-36
-1.694279385e-36
-2.085120199e-36
-2.599764544e-36
-3.27949376e-36
-4.179455624e-36
-5.37332065e-36
-6.959497832e-36
-9.069430155e-36
-1.187866332e-35
-1.562161125e-35
-2.061124917e-35
-2.7265373e-35
-3.614160856e-35
-4.798407834e-35
-6.378559933e-35
-8.487057219e-35
-1.130054365e-34
-1.505458536e-34
-2.006328266e-34
-2.674540346e-34
-3.565920851e-34
-4.754886303e-34
-6.340629634e-34
-8.455366233e-34
-1.127532787e-33
-1.503542264e-33
-2.004878709e-33
-2.673286803e-33
-3.56442217e-33
-4.752495265e-33
-6.336469847e-33
-8.448337841e-33
-1.126416824e-32
-1.501886228e-32
-2.00258613e-32
-2.670347308e-32
-3.561004418e-32
-4.749095658e-32
-6.334143092e-32
-8.449046485e-32
-1.127130355e-31
-1.50380111e-31
-2.006592586e-31
-2.677829924e-31
-3.574078734e-31
-4.770952734e-31
-6.369554131e-31
-8.505107291e-31
-1.135854256e-30
-1.517205315e-30
-2.027000997e-30
-2.708711043e-30
-3.620630368e-30
-4.840993686e-30
-6.474878842e-30
-8.663530963e-30
-1.159696609e-29
-1.55310273e-29
-2.08105106e-29
-2.790061553e-29
-3.742988326e-29
-5.024902658e-29
-6.751158477e-29
-9.078383302e-29
-1.221920639e-28
-1.646141033e-28
-2.219184562e-28
-2.992534052e-28
-4.034083038e-28
-5.433583626e-28
-7.313569686e-28
-9.854921662e-28
-1.33556987e-27
-1.835307924e-27
-2.584013005e-27
-3.757254298e-27
-5.632994081e-27
-8.569626922e-27
-1.284104132e-26
-1.817436152e-26
-2.282889848e-26
-2.225329658e-26
-8.058616841e-27
3.030156854e-26
9.566375023e-26
1.548833051e-25
7.56408757e-26
-4.990054503e-25
-2.408022395e-24
-7.655196006e-24
-2.182004608e-23
-6.271760044e-23
-1.836711032e-22
-4.925895116e-22
-9.516785797e-22
-1.33426868e-22
8.537368132e-21
4.202047479e-20
1.181392349e-19
1.549733105e-19
-5.557266418e-19
-5.730386922e-18
-3.411887009e-17
-1.661709357e-16
-7.17080784e-16
-2.832382092e-15
-1.041400678e-14
-3.600377198e-14
-1.177803528e-13
-3.666616647e-13
-1.090218877e-12
-3.105330852e-12
-8.4945556e-12
-2.2364057e-11
-5.677400392e-11
-1.392016939e-10
-3.299407112e-10
-7.579460554e-10
-1.683846295e-09
-3.649573131e-09
-7.70493625e-09
-1.589365043e-08
-3.094907629e-08
-5.85744014e-08
-1.073965646e-07
-1.904940332e-07
-3.266135235e-07
-5.40587399e-07
-8.633959541e-07
-1.325871363e-06
-1.948737208e-06
-2.735274594e-06
-3.562929139e-06
-4.646109112e-06
-4.763831384e-06
-3.542188189e-06
1.205514669e-07
6.464057784e-06
1.848684484e-05
3.546794275e-05
5.631650831e-05
7.654284764e-05
9.781341077e-05
0.0001147547738
0.0001253826786
0.0001292996282
0.0001275402981
0.0001208149743
0.0001107757549
9.824054836e-05
8.457097591e-05
7.126394548e-05
5.859041978e-05
4.686099178e-05
3.639486228e-05
2.755913138e-05
2.04673335e-05
1.525238632e-05
1.110874133e-05
7.81847375e-06
5.281858348e-06
3.511380608e-06
2.096483979e-06
1.036277383e-06
2.715869581e-07
-4.309480005e-07
-6.340548214e-07
-7.227656379e-07
-8.293128903e-07
-8.366411887e-07
-7.890589581e-07
-7.151358684e-07
-6.31835914e-07
-5.486666829e-07
-4.691352291e-07
-3.981572203e-07
-3.351895571e-07
-2.803095488e-07
-2.331170368e-07
-1.929636686e-07
-1.590930455e-07
-1.307256663e-07
-1.071093971e-07
-8.754780375e-08
-7.141438722e-08
-5.815649972e-08
-4.729508e-08
-3.842001543e-08
-3.118379608e-08
-2.529444203e-08
-2.050835296e-08
-1.662348893e-08
-1.347310684e-08
-1.092016569e-08
-8.852428727e-09
-7.178242608e-09
-5.822944398e-09
-4.725835145e-09
-3.83764988e-09
-3.118457338e-09
-2.535926099e-09
-2.063899795e-09
-1.681230809e-09
-1.370828584e-09
-1.118885132e-09
-9.142460936e-10
-7.479009283e-10
-6.125702274e-10
-5.023720551e-10
-4.125524092e-10
-3.392676202e-10
-2.794087787e-10
-2.304600984e-10
-1.903846964e-10
-1.575324728e-10
-1.305658242e-10
-1.083997226e-10
-9.01533761e-11
-7.511122516e-11
-6.26914576e-11
-5.242058947e-11
-4.391292777e-11
-3.685398125e-11
-3.098704146e-11
-2.610233215e-11
-2.202822823e-11
-1.862414294e-11
-1.577476593e-11
-1.338539081e-11
-1.137812367e-11
-9.688805563e-12
-8.264510665e-12
-7.061511821e-12
-6.04362293e-12
-5.180850804e-12
-4.448293313e-12
-3.825239891e-12
-3.294435776e-12
-2.84148157e-12
-2.454339609e-12
-2.122928094e-12
-1.838788824e-12
-1.5948143e-12
-1.385021071e-12
-1.204363204e-12
-1.048578284e-12
-9.140596356e-13
-7.977504297e-13
-6.970561307e-13
-6.097707313e-13
-5.340156755e-13
-4.681887033e-13
-4.109216622e-13
-3.610448088e-13
-3.175556139e-13
-2.795937394e-13
-2.464209511e-13
-2.17402719e-13
-1.919922946e-13
-1.697184179e-13
-1.501745291e-13
-1.330091238e-13
-1.179179307e-13
-1.046377933e-13
-9.29400382e-14
-8.262675312e-14
-7.352573735e-14
-6.548716662e-14
-5.838054278e-14
-5.209227017e-14
-4.652326158e-14
-4.158693784e-14
-3.720781059e-14
-3.33196867e-14
-2.986449599e-14
-2.67915648e-14
-2.40562458e-14
-2.161946746e-14
-1.944683728e-14
-1.750821499e-14
-1.57770056e-14
-1.42298233e-14
-1.2845864e-14
-1.160700926e-14
-1.049720377e-14
-9.502201158e-15
-8.60927063e-15
-7.807368545e-15
-7.086820754e-15
-6.438765443e-15
-5.85542494e-15
-5.329920128e-15
-4.856103755e-15
-4.428483047e-15
-4.04240852e-15
-3.693478929e-15
-3.377877566e-15
-3.092165319e-15
-2.833312952e-15
-2.598595551e-15
-2.385579531e-15
-2.192089e-15
-2.016110096e-15
-1.856031731e-15
-1.710253654e-15
-1.577371251e-15
-1.456154053e-15
-1.345500311e-15
-1.244388974e-15
-1.151855035e-15
-1.067180655e-15
-9.895426459e-16
-9.183016697e-16
-8.528909046e-16
-7.928372791e-16
-7.376144053e-16
-6.867906051e-16
-6.399543212e-16
-5.96759446e-16
-5.56862488e-16
-5.199885992e-16
-4.858743961e-16
-4.543390828e-16
-4.250928765e-16
-3.979610563e-16
-3.727556244e-16
-3.493569601e-16
-3.27593651e-16
-3.073481934e-16
-2.885037439e-16
-2.709479259e-16
-2.545657512e-16
-2.392726234e-16
-2.249701615e-16
-2.115926846e-16
-1.990636471e-16
-1.873024275e-16
-1.762861235e-16
-1.659910035e-16
-1.563178665e-16
-1.472610622e-16
-1.387323307e-16
-1.307284481e-16
-1.231927143e-16
-1.161070565e-16
-1.094142068e-16
-1.031238557e-16
-9.719141894e-17
-9.157978403e-17
-8.62767736e-17
-8.129007979e-17
-7.657442319e-17
-7.21104564e-17
-6.787567511e-17
-6.390374869e-17
-6.015843014e-17
-5.660113034e-17
-5.320823115e-17
-4.999007191e-17
-4.696893356e-17
-4.410669834e-17
-4.139583637e-17
-3.88320305e-17
-3.6389574e-17
-3.407438994e-17
-3.188570263e-17
-2.980441002e-17
-2.782132863e-17
-2.596540848e-17
-2.420152319e-17
-2.252775636e-17
-2.093427196e-17
-1.943260149e-17
-1.80117567e-17
-1.666862653e-17
-1.540618603e-17
-1.421094204e-17
-1.306143505e-17
-1.197738688e-17
-1.095174668e-17
-9.985638366e-18
-9.073871878e-18
-8.21016545e-18
-7.378761456e-18
-6.590311029e-18
-5.849099596e-18
-5.14854775e-18
-4.475415355e-18
-3.844168125e-18
-3.245878057e-18
-2.691693395e-18
-2.173762821e-18
-1.678956204e-18
-1.21445348e-18
-7.670145578e-19
-3.4468878e-19
4.147868496e-20
4.188087118e-19
7.678824793e-19
1.082995041e-18
1.386499353e-18
1.673785245e-18
1.930520613e-18
2.177945715e-18
2.40708247e-18
2.62926656e-18
2.81903386e-18
3.005319761e-18
3.185529548e-18
3.346241015e-18
3.494879285e-18
3.638441934e-18
3.762370729e-18
3.874813125e-18
3.97564041e-18
4.055123327e-18
4.134000969e-18
4.207860571e-18
4.280440625e-18
4.343444787e-18
4.397355475e-18
4.447260143e-18
4.48840006e-18
4.531305927e-18
4.562449493e-18
4.595416544e-18
4.621738725e-18
4.629526537e-18
4.634006756e-18
4.634753754e-18
4.632770349e-18
4.630396229e-18
4.626982788e-18
4.619336895e-18
4.60679582e-18
4.592410969e-18
4.572998396e-18
4.549537285e-18
4.525310094e-18
4.500173623e-18
4.469980753e-18
4.450142091e-18
4.421875598e-18
4.391556269e-18
4.349541438e-18
4.307700277e-18
4.269026182e-18
4.226849572e-18
4.183100987e-18
4.146505196e-18
4.107002517e-18
4.072043084e-18
4.032292458e-18
3.992443228e-18
3.95086277e-18
3.903648768e-18
3.855660626e-18
3.804453105e-18
3.756082188e-18
3.704950973e-18
3.653261593e-18
3.609408342e-18
3.564525574e-18
3.514464614e-18
3.463371189e-18
3.412596005e-18
3.359480648e-18
3.305917768e-18
3.2545628e-18
3.205785646e-18
3.16144183e-18
3.114663823e-18
3.064520753e-18
3.010503899e-18
2.960564332e-18
2.915683579e-18
2.870001574e-18
2.824485046e-18
2.780936053e-18
2.734825022e-18
2.688321026e-18
2.640790326e-18
2.594359031e-18
2.553138897e-18
2.509616741e-18
2.466702198e-18
2.428484471e-18
2.388754206e-18
2.343979972e-18
2.303886421e-18
2.264249703e-18
2.223156625e-18
2.180982942e-18
2.141300016e-18
2.101432058e-18
2.065956182e-18
2.026197924e-18
1.992137935e-18
1.955744369e-18
1.92272082e-18
1.887886151e-18
1.852953997e-18
1.818531184e-18
1.783207245e-18
1.748538688e-18
1.71358154e-18
1.679021349e-18
1.64556948e-18
1.614135839e-18
1.581621615e-18
1.551129197e-18
1.521327405e-18
1.488444066e-18
1.459331542e-18
1.429703309e-18
1.400321925e-18
1.37401331e-18
1.347356296e-18
1.319847201e-18
1.291879431e-18
1.266170338e-18
1.241305164e-18
1.218402778e-18
1.196664163e-18
1.173949584e-18
1.150771507e-18
1.128770222e-18
1.107309813e-18
1.084808289e-18
1.063090491e-18
1.039262586e-18
1.01836684e-18
9.963854882e-19
9.746031445e-19
9.521983925e-19
9.299655992e-19
9.097981232e-19
8.912522568e-19
8.720405289e-19
8.525955333e-19
8.334980245e-19
8.167923967e-19
7.995279964e-19
7.820582546e-19
7.633957994e-19
7.464806706e-19
7.328330458e-19
7.18334504e-19
7.070755696e-19
6.935877119e-19
6.782127772e-19
6.604269388e-19
6.454570191e-19
6.324092505e-19
6.207515764e-19
6.070033238e-19
5.930954563e-19
5.80287649e-19
5.673822018e-19
5.551539975e-19
5.418931465e-19
5.272154391e-19
5.164532764e-19
5.060836926e-19
4.949599446e-19
4.827501956e-19
4.696334822e-19
4.568342443e-19
4.455243395e-19
4.365245919e-19
4.263357117e-19
4.181168508e-19
4.114689845e-19
4.037350445e-19
3.955372176e-19
3.849321646e-19
3.752371076e-19
3.675556934e-19
3.590984827e-19
3.519809752e-19
3.436947297e-19
3.35628411e-19
3.268942862e-19
3.184496665e-19
3.104260458e-19
3.047937675e-19
2.99843722e-19
2.941909473e-19
2.879735227e-19
2.812809405e-19
2.753312858e-19
2.694596336e-19
2.616422737e-19
2.549754195e-19
2.478846717e-19
2.413746174e-19
2.372218155e-19
2.319587391e-19
2.257989683e-19
2.197826402e-19
2.143116779e-19
2.094102709e-19
2.059604401e-19
2.008898277e-19
1.969330519e-19
1.919352556e-19
1.870470581e-19
1.82221257e-19
1.773492964e-19
1.740269889e-19
1.696320126e-19
1.661090905e-19
1.620159026e-19
1.581771349e-19
1.531394137e-19
1.499607129e-19
1.463978545e-19
1.440066554e-19
1.41078102e-19
1.3870946e-19
1.336380458e-19
1.302767775e-19
1.274292439e-19
1.250250626e-19
1.235533562e-19
1.215555219e-19
1.193916049e-19
1.169718029e-19
1.147172287e-19
1.125868881e-19
1.094889696e-19
1.054853018e-19
1.020817953e-19
9.934208408e-20
9.645033697e-20
9.348389291e-20
9.092655936e-20
8.86897847e-20
8.547311855e-20
8.292875899e-20
8.20599018e-20
8.081359455e-20
7.807808345e-20
7.549424148e-20
7.315055988e-20
7.141447279e-20
6.991152043e-20
6.890107413e-20
6.630322466e-20
6.407398344e-20
6.297034814e-20
6.144609508e-20
6.042106691e-20
6.043401851e-20
5.95889743e-20
5.878207135e-20
5.867798401e-20
5.717522465e-20
5.688372794e-20
5.621041775e-20
5.457142858e-20
5.34225661e-20
5.109455286e-20
4.894280538e-20
4.773213781e-20
4.663794324e-20
4.515591351e-20
4.322299678e-20
4.147585509e-20
3.190279547e-20
2.217259753e-20
1.370370383e-20
1.405961799e-20
1.122853299e-20
1.544814781e-21
2.534130741e-21
-6.645381324e-21
-8.354972416e-21
-4.94967969e-21
-6.601638121e-21
-5.782975586e-21
-3.959967521e-21
-5.361704825e-21
-4.081882713e-21
-5.361059925e-21
-7.311088836e-21
-6.80844351e-21
-6.330700482e-21
-6.664394502e-21
-6.220012007e-21
-7.434057781e-21
-6.954800421e-21
-7.144374875e-21
-7.094180434e-21
-7.171869465e-21
-7.418713104e-21
-7.466842747e-21
-7.502822647e-21
-7.801183918e-21
-7.81662905e-21
-8.012645489e-21
-8.054973802e-21
-8.137208143e-21
-8.393816294e-21
-8.842953575e-21
-8.972174058e-21
-9.321248275e-21
-9.617328387e-21
-9.960847481e-21
-1.034284127e-20
-1.079116797e-20
-1.120211332e-20
-1.156804983e-20
-1.198000695e-20
-1.24367117e-20
-1.30375935e-20
-1.372759017e-20
-1.389320883e-20
-1.439762572e-20
-1.469266499e-20
-1.520795828e-20
-1.537153845e-20
-1.602734164e-20
-1.599565742e-20
-1.645199794e-20
-1.642516204e-20
-1.641611845e-20
-1.654188532e-20
-1.636500181e-20
-1.628052383e-20
-1.602149073e-20
-1.574213145e-20
-1.542127353e-20
-1.495675086e-20
-1.445364744e-20
-1.390196722e-20
-1.329459591e-20
-1.265245257e-20
-1.197931063e-20
-1.125983002e-20
-1.051838671e-20
-9.77576858e-21
-9.084589365e-21
-8.323014691e-21
-7.573973572e-21
-6.874011416e-21
-6.186201096e-21
-5.550267815e-21
-4.924446346e-21
-4.360680759e-21
-3.830571214e-21
-3.317420259e-21
-2.827947807e-21
-2.432980438e-21
-2.048716397e-21
-1.712449245e-21
-1.448388622e-21
-1.187876255e-21
-9.556491776e-22
-7.618178715e-22
-5.835702856e-22
-4.449202454e-22
-3.237770867e-22
-2.254907545e-22
-1.425873684e-22
-7.539688344e-23
-2.128029937e-23
2.486855555e-23
6.099437615e-23
9.115452063e-23
1.151786362e-22
1.360799612e-22
1.522007353e-22
1.676940168e-22
1.793449492e-22
1.887921673e-22
1.990862052e-22
2.09242274e-22
2.153433027e-22
2.230173087e-22
2.292282921e-22
2.359003927e-22
2.405329437e-22
2.453193582e-22
2.492548603e-22
2.516986292e-22
2.532958008e-22
2.555599686e-22
2.561453976e-22
2.566190154e-22
2.561889475e-22
2.5538772e-22
2.538240748e-22
2.515604061e-22
2.494220996e-22
2.474755635e-22
2.444148095e-22
2.424065044e-22
2.383655418e-22
2.332803494e-22
2.29695964e-22
2.245646252e-22
2.212463244e-22
2.16164393e-22
2.096461923e-22
2.047241912e-22
1.988733916e-22
1.919014917e-22
1.834800192e-22
1.77573341e-22
1.716925871e-22
1.621124157e-22
1.572820986e-22
1.501296274e-22
1.410755747e-22
1.336869658e-22
1.215347712e-22
1.144265919e-22
1.05320795e-22
9.610988855e-23
8.652952717e-23
8.071809736e-23
6.892203641e-23
6.245972756e-23
5.068287127e-23
4.222433305e-23
3.793478926e-23
2.728466413e-23
1.88929904e-23
8.963094593e-24
4.197360523e-24
-2.281826036e-24
-1.07465951e-23
-1.701556066e-23
-2.572191657e-23
-2.539894693e-23
-3.351825632e-23
-4.159103193e-23
-4.398691672e-23
-4.79024488e-23
-5.146510329e-23
-5.420409751e-23
-6.005021071e-23
-5.961590786e-23
-6.497606445e-23
-6.92942044e-23
-6.81072971e-23
-6.975181745e-23
-7.169254657e-23
-7.197300921e-23
-7.178687041e-23
-7.303877585e-23
-7.118001353e-23
-7.370892428e-23
-7.273661551e-23
-7.52899942e-23
-7.330468477e-23
-7.285294843e-23
-7.290307638e-23
-7.250952432e-23
-7.207295132e-23
-7.088609607e-23
-7.43643437e-23
-7.194365588e-23
-7.430315747e-23
-7.54483202e-23
-7.726692425e-23
-7.879855379e-23
-7.988624803e-23
-8.239585669e-23
-8.576846504e-23
-8.621783906e-23
-9.181516367e-23
-9.417619738e-23
-9.782426983e-23
-1.022327797e-22
-1.0608724e-22
-1.09990264e-22
-1.14015834e-22
-1.188862289e-22
-1.21950667e-22
-1.254803791e-22
-1.292458614e-22
-1.331976522e-22
-1.372767783e-22
-1.399266209e-22
-1.430313698e-22
-1.454938735e-22
-1.471156253e-22
-1.4842453e-22
-1.49275371e-22
-1.492429661e-22
-1.487132784e-22
-1.477657064e-22
-1.457655022e-22
-1.434604414e-22
-1.4032484e-22
-1.363987785e-22
-1.317283757e-22
-1.261314296e-22
-1.197249244e-22
-1.135315029e-22
-1.06378236e-22
-9.696868865e-23
-9.06317613e-23
-8.052494684e-23
-6.89609533e-23
-6.128379363e-23
-5.106303504e-23
-3.903015197e-23
-3.004906471e-23
-1.694512611e-23
-5.699601602e-24
3.025300148e-24
1.449048686e-23
2.832658134e-23
3.607763736e-23
4.902099837e-23
5.814816737e-23
)
;

boundaryField
{
    inlet
    {
        type            calculated;
        value           uniform 0;
    }
    outlet
    {
        type            calculated;
        value           uniform 5.938876501e-23;
    }
    wall
    {
        type            empty;
    }
}


// ************************************************************************* //
