/*--------------------------------*- C++ -*----------------------------------*\
  =========                 |
  \\      /  F ield         | OpenFOAM: The Open Source CFD Toolbox
   \\    /   O peration     | Website:  https://openfoam.org
    \\  /    A nd           | Version:  7
     \\/     M anipulation  |
\*---------------------------------------------------------------------------*/
FoamFile
{
    version     2.0;
    format      ascii;
    class       volScalarField;
    location    "0.000558243009";
    object      ddt0(rho,O);
}
// * * * * * * * * * * * * * * * * * * * * * * * * * * * * * * * * * * * * * //

dimensions      [1 -3 -1 0 0 0 0];

internalField   nonuniform List<scalar> 
1500
(
-3.601343656e-23
2.630712885e-23
3.957071552e-23
3.692965689e-23
2.677136469e-23
1.611019444e-23
8.177235015e-24
3.321300329e-24
6.93790187e-25
-6.698446162e-25
-1.42994761e-24
-1.936312696e-24
-2.338983621e-24
-2.69111028e-24
-3.004610663e-24
-3.277130387e-24
-3.502543709e-24
-3.675064598e-24
-3.79071485e-24
-3.847654579e-24
-3.846063656e-24
-3.787849821e-24
-3.676322722e-24
-3.515900198e-24
-3.311866124e-24
-3.07017192e-24
-2.797262073e-24
-2.499905478e-24
-2.185023939e-24
-1.859519547e-24
-1.530109578e-24
-1.20318035e-24
-8.846710965e-25
-5.799935612e-25
-2.939878799e-25
-3.091014189e-26
2.05558067e-25
4.122869955e-25
5.866710844e-25
7.26603885e-25
8.304602644e-25
8.970882319e-25
9.258100339e-25
9.164301471e-25
8.692470617e-25
7.850651247e-25
6.652028568e-25
5.11494653e-25
3.262831053e-25
1.12399793e-25
-1.26866713e-25
-3.87816126e-25
-6.663946335e-25
-9.582647244e-25
-1.258884761e-24
-1.563595791e-24
-1.867712466e-24
-2.166615034e-24
-2.455839174e-24
-2.731160823e-24
-2.988673594e-24
-3.224856519e-24
-3.436630563e-24
-3.621402792e-24
-3.77709762e-24
-3.902174948e-24
-3.995635448e-24
-4.057013698e-24
-4.086359856e-24
-4.084210878e-24
-4.051552533e-24
-3.989773649e-24
-3.900614177e-24
-3.786108716e-24
-3.648527252e-24
-3.490314821e-24
-3.314032057e-24
-3.122298386e-24
-2.917739414e-24
-2.70294e-24
-2.480404099e-24
-2.252522301e-24
-2.021547427e-24
-1.789578242e-24
-1.558551007e-24
-1.330238062e-24
-1.106252434e-24
-8.880574717e-25
-6.76980105e-25
-4.742261826e-25
-2.80896566e-25
-9.800268961e-26
7.351956596e-26
2.327984746e-25
3.790181948e-25
5.114139292e-25
6.292705778e-25
7.319246575e-25
8.187691832e-25
8.89260961e-25
9.429296623e-25
9.793879923e-25
9.98342248e-25
9.996025892e-25
9.830924379e-25
9.48856451e-25
8.970666941e-25
8.280267289e-25
7.421734156e-25
6.400764084e-25
5.224353639e-25
3.900749712e-25
2.439380393e-25
8.507681663e-26
-8.535709799e-26
-2.661240354e-25
-4.559083592e-25
-6.533311539e-25
-8.569632533e-25
-1.065338361e-24
-1.276966144e-24
-1.490345106e-24
-1.703975258e-24
-1.916370458e-24
-2.126070441e-24
-2.331652544e-24
-2.531743097e-24
-2.7250285e-24
-2.910265954e-24
-3.086293773e-24
-3.252041195e-24
-3.4065376e-24
-3.548920942e-24
-3.678445234e-24
-3.794486941e-24
-3.896550063e-24
-3.984269734e-24
-4.057414207e-24
-4.11588509e-24
-4.159715771e-24
-4.189067968e-24
-4.204226444e-24
-4.205591955e-24
-4.193672511e-24
-4.169073165e-24
-4.132484483e-24
-4.084669978e-24
-4.026452734e-24
-3.958701558e-24
-3.882316915e-24
-3.798216951e-24
-3.707323898e-24
-3.610551122e-24
-3.508791036e-24
-3.402904088e-24
-3.293708933e-24
-3.181973972e-24
-3.068410215e-24
-2.953665603e-24
-2.838320637e-24
-2.722885352e-24
-2.607797498e-24
-2.493421877e-24
-2.380050697e-24
-2.26790491e-24
-2.157136422e-24
-2.047831195e-24
-1.940013232e-24
-1.83364949e-24
-1.728655794e-24
-1.624903847e-24
-1.522229402e-24
-1.420441699e-24
-1.319334043e-24
-1.218695478e-24
-1.118323322e-24
-1.018036105e-24
-9.176864183e-25
-8.171730406e-25
-7.16451558e-25
-6.155427219e-25
-5.145378421e-25
-4.136006368e-25
-3.129651552e-25
-2.129297565e-25
-1.138473786e-25
-1.611265235e-26
7.985308304e-26
1.736178841e-25
2.647550464e-25
3.528575328e-25
4.375499108e-25
5.184969969e-25
5.954088358e-25
6.680421168e-25
7.361983599e-25
7.997196771e-25
8.58483023e-25
9.123938237e-25
9.613796928e-25
1.005384785e-24
1.044364728e-24
1.078281975e-24
1.107101055e-24
1.130783117e-24
1.14927959e-24
1.162524916e-24
1.170429286e-24
1.17287281e-24
1.169703305e-24
1.160740305e-24
1.145787798e-24
1.124657525e-24
1.097203529e-24
1.063366613e-24
1.023224977e-24
9.770449497e-25
9.253233555e-25
8.688113686e-25
8.085095074e-25
7.456243812e-25
6.814809142e-25
6.173884525e-25
5.544657653e-25
4.934373328e-25
4.344211616e-25
3.767352609e-25
3.187550961e-25
2.578561785e-25
1.904740839e-25
1.123073515e-25
1.867750304e-26
-9.495612738e-26
-2.32348338e-25
-3.957305086e-25
-5.850494235e-25
-7.972673398e-25
-1.025823028e-24
-1.260358237e-24
-1.486810431e-24
-1.687951768e-24
-1.844431435e-24
-1.936330435e-24
-1.945245673e-24
-1.856863461e-24
-1.664282271e-24
-1.371880935e-24
-1.000491827e-24
-5.860253509e-25
-1.656482022e-25
4.135418693e-26
8.800044297e-26
1.172169711e-25
1.395559058e-25
1.595945349e-25
1.788817885e-25
1.976831405e-25
2.158946865e-25
2.333352915e-25
2.498633559e-25
2.653890551e-25
2.798578727e-25
2.932393596e-25
3.055052534e-25
3.166276348e-25
3.265755809e-25
3.353088289e-25
3.427824572e-25
3.489466661e-25
3.537495064e-25
3.571349871e-25
3.590422611e-25
3.594121702e-25
3.581808834e-25
3.552860996e-25
3.50655458e-25
3.442220017e-25
3.359111779e-25
3.256505386e-25
3.133580668e-25
2.9895523e-25
2.823551509e-25
2.634706091e-25
2.422105543e-25
2.184763994e-25
1.921699936e-25
1.631873954e-25
1.314175539e-25
9.674746259e-26
5.90583231e-26
1.822435138e-26
-2.588573164e-26
-7.341017642e-26
-1.244914313e-25
-1.792828324e-25
-2.379444569e-25
-3.006423039e-25
-3.675541355e-25
-4.388675315e-25
-5.147771319e-25
-5.95491933e-25
-6.812301387e-25
-7.722252447e-25
-8.687205354e-25
-9.709760641e-25
-1.079266989e-24
-1.193885347e-24
-1.315140608e-24
-1.443360215e-24
-1.578892264e-24
-1.722109149e-24
-1.87340261e-24
-2.033193568e-24
-2.201926223e-24
-2.380076919e-24
-2.568148754e-24
-2.766682023e-24
-2.976251058e-24
-3.197466226e-24
-3.43098257e-24
-3.677494927e-24
-3.937746375e-24
-4.212527962e-24
-4.502688427e-24
-4.809127258e-24
-5.13281125e-24
-5.474765881e-24
-5.83609013e-24
-6.217954243e-24
-6.621609499e-24
-7.048389318e-24
-7.499716569e-24
-7.977111813e-24
-8.482189911e-24
-9.016681872e-24
-9.582425174e-24
-1.018138402e-23
-1.081564748e-23
-1.148743953e-23
-1.219913161e-23
-1.295324538e-23
-1.375246281e-23
-1.459963745e-23
-1.54978006e-23
-1.645017293e-23
-1.746017568e-23
-1.853143614e-23
-1.966780477e-23
-2.08733616e-23
-2.215243e-23
-2.350958767e-23
-2.494967586e-23
-2.647781916e-23
-2.809942637e-23
-2.982021532e-23
-3.164621792e-23
-3.358379202e-23
-3.563964179e-23
-3.782082532e-23
-4.01347681e-23
-4.25892782e-23
-4.519255835e-23
-4.795321666e-23
-5.088028457e-23
-5.398322398e-23
-5.727194383e-23
-6.075680624e-23
-6.444864885e-23
-6.83587804e-23
-7.249900407e-23
-7.688162011e-23
-8.151943812e-23
-8.642578292e-23
-9.161450169e-23
-9.709997347e-23
-1.028971055e-22
-1.090213494e-22
-1.154886905e-22
-1.223156599e-22
-1.29519325e-22
-1.371172923e-22
-1.451277028e-22
-1.535692246e-22
-1.624610493e-22
-1.718228747e-22
-1.816748983e-22
-1.92037807e-22
-2.029327519e-22
-2.143813367e-22
-2.264055976e-22
-2.390279712e-22
-2.522712789e-22
-2.661586925e-22
-2.807137093e-22
-2.959601084e-22
-3.119219273e-22
-3.286234102e-22
-3.460889783e-22
-3.643431809e-22
-3.834106456e-22
-4.033160361e-22
-4.240839935e-22
-4.457390921e-22
-4.68305772e-22
-4.918082911e-22
-5.162706568e-22
-5.417165677e-22
-5.681693521e-22
-5.956518943e-22
-6.241865751e-22
-6.537952005e-22
-6.844989298e-22
-7.163182129e-22
-7.492727055e-22
-7.833812124e-22
-8.18661612e-22
-8.551307738e-22
-8.928045047e-22
-9.316974652e-22
-9.718231078e-22
-1.013193609e-21
-1.055819792e-21
-1.09971108e-21
-1.144875422e-21
-1.191319231e-21
-1.239047338e-21
-1.288062931e-21
-1.338367502e-21
-1.389960809e-21
-1.442840832e-21
-1.497003723e-21
-1.552443791e-21
-1.609153463e-21
-1.667123262e-21
-1.726341787e-21
-1.786795716e-21
-1.848469775e-21
-1.911346765e-21
-1.975407548e-21
-2.040631072e-21
-2.106994391e-21
-2.174472685e-21
-2.243039301e-21
-2.312665786e-21
-2.383321951e-21
-2.454975914e-21
-2.52759416e-21
-2.601141626e-21
-2.675581772e-21
-2.750876662e-21
-2.826987061e-21
-2.903872544e-21
-2.981491582e-21
-3.059801696e-21
-3.138759524e-21
-3.218321005e-21
-3.298441491e-21
-3.379075884e-21
-3.460178801e-21
-3.541704741e-21
-3.623608207e-21
-3.705843949e-21
-3.788367058e-21
-3.871133228e-21
-3.954098891e-21
-4.037221438e-21
-4.120459446e-21
-4.203772841e-21
-4.287123146e-21
-4.37047369e-21
-4.453789858e-21
-4.537039314e-21
-4.620192228e-21
-4.703221552e-21
-4.786103264e-21
-4.868816631e-21
-4.951344465e-21
-5.033673431e-21
-5.115794312e-21
-5.197702271e-21
-5.279397209e-21
-5.360884047e-21
-5.442173011e-21
-5.523280012e-21
-5.604226915e-21
-5.685041942e-21
-5.765759983e-21
-5.846422976e-21
-5.927080284e-21
-6.007789059e-21
-6.088614636e-21
-6.16963097e-21
-6.250921037e-21
-6.332577262e-21
-6.414701997e-21
-6.497408033e-21
-6.580819069e-21
-6.665070328e-21
-6.750309294e-21
-6.836696332e-21
-6.924405722e-21
-7.013626698e-21
-7.104564596e-21
-7.197442196e-21
-7.292500933e-21
-7.390001499e-21
-7.490222781e-21
-7.593456949e-21
-7.699996022e-21
-7.810110847e-21
-7.924073707e-21
-8.042498799e-21
-8.167780421e-21
-8.303588236e-21
-8.445851553e-21
-8.595685506e-21
-8.758902256e-21
-8.925387871e-21
-9.095979278e-21
-9.271807272e-21
-9.453397307e-21
-9.640960792e-21
-9.834754954e-21
-1.003525876e-20
-1.024305882e-20
-1.045842011e-20
-1.068090128e-20
-1.091174959e-20
-1.116874871e-20
-1.143687854e-20
-1.171704362e-20
-1.201346465e-20
-1.233331055e-20
-1.267767994e-20
-1.304329449e-20
-1.342931132e-20
-1.383661799e-20
-1.426650793e-20
-1.472029274e-20
-1.519926305e-20
-1.570471587e-20
-1.62379786e-20
-1.680042275e-20
-1.73934715e-20
-1.801860305e-20
-1.867735331e-20
-1.937131775e-20
-2.01021529e-20
-2.087157845e-20
-2.168137945e-20
-2.253340851e-20
-2.342958874e-20
-2.437191639e-20
-2.536246455e-20
-2.640338614e-20
-2.749691819e-20
-2.864538565e-20
-2.985120592e-20
-3.111689373e-20
-3.244506602e-20
-3.383844775e-20
-3.529987756e-20
-3.683231432e-20
-3.843884367e-20
-4.012268577e-20
-4.188720267e-20
-4.373590712e-20
-4.567247141e-20
-4.770073709e-20
-4.982472582e-20
-5.204865006e-20
-5.437692602e-20
-5.681418657e-20
-5.936529628e-20
-6.203536684e-20
-6.482977573e-20
-6.775418551e-20
-7.081456676e-20
-7.401722338e-20
-7.736882274e-20
-8.08764302e-20
-8.454755051e-20
-8.8390177e-20
-9.241285171e-20
-9.662473933e-20
-1.010357184e-19
-1.056564962e-19
-1.104987537e-19
-1.155753292e-19
-1.209004554e-19
-1.264900605e-19
-1.323621617e-19
-1.385373708e-19
-1.450395534e-19
-1.51896687e-19
-1.591419785e-19
-1.668153263e-19
-1.749652298e-19
-1.836512905e-19
-1.929474877e-19
-2.029464713e-19
-2.137651933e-19
-2.255522967e-19
-2.384978143e-19
-2.528459082e-19
-2.689116088e-19
-2.871028171e-19
-3.07949244e-19
-3.321404911e-19
-3.605761932e-19
-3.944320824e-19
-4.352471116e-19
-4.850384307e-19
-5.46453296e-19
-6.229699896e-19
-7.191639288e-19
-8.410606264e-19
-9.966046609e-19
-1.196283981e-18
-1.453962789e-18
-1.787995429e-18
-2.222720187e-18
-2.790468757e-18
-3.534278829e-18
-4.511570038e-18
-5.799147281e-18
-7.500043929e-18
-9.752932818e-18
-1.274514674e-17
-1.673081313e-17
-2.205629431e-17
-2.919615217e-17
-3.880440182e-17
-5.178815309e-17
-6.941427361e-17
-9.346506203e-17
-1.264670168e-16
-1.720289954e-16
-2.353443853e-16
-3.239392734e-16
-4.487893103e-16
-6.259884415e-16
-8.792431966e-16
-1.243604254e-15
-1.771061283e-15
-2.538940171e-15
-3.662426912e-15
-5.313055096e-15
-7.746181164e-15
-1.134261547e-14
-1.667242185e-14
-2.459355729e-14
-3.640677196e-14
-5.410417407e-14
-8.07781421e-14
-1.213112809e-13
-1.835670478e-13
-2.804794086e-13
-4.337578407e-13
-6.804865469e-13
-1.084881878e-12
-1.75920445e-12
-2.900866174e-12
-4.858176188e-12
-8.246904284e-12
-1.415781777e-11
-2.452979487e-11
-4.283182485e-11
-7.533983557e-11
-1.33596057e-10
-2.39269457e-10
-4.338854458e-10
-7.98128735e-10
-1.488801811e-09
-2.805291558e-09
-5.299152338e-09
-9.937552338e-09
-1.833114851e-08
-3.308804244e-08
-5.86185585e-08
-1.035937011e-07
-1.886076867e-07
-3.68037984e-07
-7.865294191e-07
-1.812868013e-06
-4.335271157e-06
-1.037543503e-05
-2.430873995e-05
-5.521461592e-05
-0.0001212806203
-0.0002577031373
-0.0005300785023
-0.001056096052
-0.002039669228
-0.003822957228
-0.006962766978
-0.01233901985
-0.02130032709
-0.03588390267
-0.05900535799
-0.09511640686
-0.1504254486
-0.2339833655
-0.354087563
-0.5290236399
-0.7828650884
-1.145774736
-1.658941624
-2.375740565
-3.367380889
-4.720027549
-6.536097586
-8.939538778
-12.02409781
-16.10318992
-20.86991285
-26.55691565
-33.13959716
-40.94185415
-49.01319471
-57.48757089
-65.98673055
-75.33883436
-82.28744569
-87.70723183
-91.25409808
-92.8050947
-92.5737584
-91.09529132
-91.23768884
-90.51775307
-92.03385361
-93.22993169
-95.1017583
-97.07910201
-98.19522053
-97.77619084
-96.22151054
-94.85280431
-91.51073998
-86.69411203
-81.10084714
-75.44223841
-69.50207628
-63.99164488
-59.35908816
-54.64488402
-51.18794082
-48.52922636
-47.12899853
-46.16940722
-45.49445749
-45.01391338
-44.66113388
-44.3798708
-44.05292213
-43.75503089
-43.38647773
-42.92493454
-42.35851051
-41.68322964
-40.90168614
-40.02140479
-39.05329641
-38.01032403
-36.90654458
-35.75590029
-34.57192146
-33.36726479
-32.15343053
-30.94061946
-29.73765537
-28.55204053
-27.38999168
-26.25653431
-25.155619
-24.09023285
-23.06251604
-22.07387756
-21.12510281
-20.21645245
-19.34775244
-18.51847436
-17.72780634
-16.97471492
-16.2579984
-15.5763323
-14.92830797
-14.31246461
-13.72731593
-13.17137177
-12.64315557
-12.14121818
-11.66414848
-11.21058152
-10.77920429
-10.36875975
-9.978049342
-9.605934229
-9.251335549
-8.913233922
-8.590668284
-8.28273426
-7.988582225
-7.707415074
-7.438485825
-7.181095153
-6.934588824
-6.698355199
-6.47182267
-6.25445728
-6.045760274
-5.845265865
-5.652538997
-5.467173331
-5.2887892
-5.117031822
-4.95156948
-4.792091936
-4.638308882
-4.489948485
-4.346756087
-4.208492948
-4.074935079
-3.945872206
-3.821106759
-3.700452939
-3.583735914
-3.470790993
-3.361462925
-3.255605232
-3.153079563
-3.053755171
-2.957508345
-2.864221949
-2.773784965
-2.686092087
-2.601043343
-2.518543726
-2.438502893
-2.360834847
-2.28545546
-2.212291034
-2.141264481
-2.072305339
-2.005345171
-1.940319013
-1.877164629
-1.81582247
-1.756235441
-1.698348836
-1.642110148
-1.587468977
-1.534376909
-1.48278743
-1.432655797
-1.383938984
-1.336595572
-1.290585685
-1.245870891
-1.202414173
-1.160179829
-1.119133418
-1.079241723
-1.040472671
-1.00279529
-0.9661796693
-0.9305969106
-0.8960190734
-0.8624191602
-0.8297710385
-0.7980494521
-0.7672299498
-0.7372888674
-0.7082033018
-0.6799510695
-0.652510687
-0.6258613294
-0.5999828438
-0.5748556787
-0.5504608809
-0.5267800799
-0.5037954614
-0.4814897403
-0.4598461523
-0.4388484351
-0.4184807986
-0.3987279125
-0.3795749094
-0.3610073425
-0.3430111801
-0.3255728055
-0.3086789732
-0.2923168305
-0.2764738792
-0.2611379758
-0.2462973093
-0.2319404044
-0.2180561068
-0.2046335532
-0.1916621974
-0.1791317684
-0.1670322726
-0.1553539878
-0.14408746
-0.133223474
-0.1227530644
-0.1126675102
-0.102958307
-0.09361717321
-0.08463605782
-0.07600709206
-0.06772263223
-0.05977521411
-0.05215757234
-0.04486261974
-0.03788344411
-0.03121331301
-0.02484565828
-0.01877407292
-0.01299229686
-0.007494244592
-0.002273956156
0.002674373351
0.007356412503
0.01177770128
0.01594363599
0.01985950094
0.02353044651
0.02696151375
0.03015761845
0.03312357019
0.03586407112
0.03838370716
0.04068697426
0.04277826585
0.0446618701
0.046341993
0.04782273803
0.04910813156
0.05020210522
0.0511085117
0.0518311235
0.05237362894
0.05273964044
0.05293270465
0.05295628796
0.05281378411
0.05250852849
0.05204378122
0.05142274451
0.05064855174
0.04972427828
0.04865294411
0.04743750437
0.04608086349
0.04458586383
0.0429553107
0.04119194184
0.03929845022
0.03727748657
0.03513164229
0.03286347005
0.03047547852
0.02797012952
0.02534984401
0.02261699652
0.01977393364
0.01682294973
0.01376630543
0.01060622692
0.00734490337
0.003984488522
0.0005270929141
-0.003025188531
-0.006670307185
-0.01040624318
-0.01423100509
-0.01814263163
-0.02213919235
-0.02621878786
-0.03037954132
-0.03461960914
-0.03893716198
-0.04333041341
-0.04779758961
-0.05233694118
-0.05694675376
-0.06162532417
-0.06637097612
-0.07118205519
-0.07605693297
-0.08099399414
-0.08599164943
-0.09104832687
-0.09616247532
-0.1013325624
-0.1065570727
-0.1118345127
-0.1171634018
-0.1225422803
-0.1279697026
-0.1334442433
-0.138964486
-0.144529039
-0.1501365153
-0.155785553
-0.1614747995
-0.1672029174
-0.1729685797
-0.1787704827
-0.1846073196
-0.1904778147
-0.1963806925
-0.2023146916
-0.2082785687
-0.2142710864
-0.2202910187
-0.226337153
-0.2324082897
-0.2385032342
-0.2446208068
-0.2507598376
-0.2569191641
-0.2630976385
-0.2692941119
-0.2755074602
-0.2817365581
-0.28798029
-0.2942375509
-0.3005072462
-0.3067882863
-0.3130795943
-0.3193800943
-0.3256887238
-0.3320044285
-0.3383261631
-0.3446528739
-0.3509835434
-0.3573171342
-0.3636526334
-0.3699890265
-0.376325308
-0.3826604786
-0.3889935498
-0.3953235322
-0.4016494504
-0.4079703284
-0.4142852034
-0.4205931135
-0.4268931025
-0.433184225
-0.4394655388
-0.4457361057
-0.4519949952
-0.4582412858
-0.4644740483
-0.4706923796
-0.4768953637
-0.4830820962
-0.4892525836
-0.4954041024
-0.5015366864
-0.5076494463
-0.5137416843
-0.5198122442
-0.5258604488
-0.5318854163
-0.5378862968
-0.5438622361
-0.5498123874
-0.5557359073
-0.5616319678
-0.5674997372
-0.5733383968
-0.5791471285
-0.5849251227
-0.5906715721
-0.5963856816
-0.6020666557
-0.6077137099
-0.6133260571
-0.6189029239
-0.6244435399
-0.6299471415
-0.6354129672
-0.6408402665
-0.6462282897
-0.6515763005
-0.6568835604
-0.6621493406
-0.6673729203
-0.6725535837
-0.6776906189
-0.682783326
-0.6878310051
-0.6928329706
-0.6977885333
-0.7026970233
-0.7075577656
-0.7123701027
-0.7171333762
-0.7218469385
-0.7265101516
-0.7311223804
-0.7356829982
-0.7401913931
-0.7446469481
-0.7490490662
-0.753397152
-0.7576906205
-0.7619288953
-0.7661114074
-0.7702375961
-0.7743069115
-0.778318812
-0.7822727619
-0.7861682416
-0.7900047293
-0.7937817262
-0.7974987379
-0.8011552775
-0.804750865
-0.80828504
-0.8117573461
-0.8151673397
-0.8185145843
-0.8217986612
-0.8250191534
-0.8281756597
-0.8312677974
-0.8342951781
-0.8372574431
-0.840154232
-0.8429852072
-0.8457500347
-0.8484483933
-0.8510799812
-0.8536445056
-0.8561416815
-0.8585712436
-0.8609329388
-0.863226526
-0.8654517743
-0.867608473
-0.8696964212
-0.8717154317
-0.8736653344
-0.8755459725
-0.8773571992
-0.8790988907
-0.8807709315
-0.882373223
-0.8839056842
-0.8853682419
-0.8867608507
-0.8880834694
-0.8893360771
-0.8905186723
-0.8916312616
-0.8926738767
-0.8936465568
-0.894549367
-0.8953823786
-0.8961456895
-0.89683941
-0.8974636671
-0.8980186034
-0.8985043823
-0.898921185
-0.8992692039
-0.8995486574
-0.8997597777
-0.899902811
-0.8999780231
-0.8999857076
-0.8999261598
-0.8997997046
-0.8996066783
-0.8993474457
-0.899022373
-0.8986318581
-0.8981763164
-0.8976561726
-0.8970718808
-0.8964238996
-0.8957127243
-0.8949388502
-0.8941028016
-0.8932051195
-0.8922463608
-0.8912271015
-0.8901479345
-0.8890094732
-0.8878123499
-0.8865572094
-0.8852447205
-0.8838755636
-0.8824504437
-0.8809700779
-0.8794352039
-0.8778465765
-0.8762049661
-0.8745111648
-0.872765974
-0.8709702277
-0.869124759
-0.8672304358
-0.8652881257
-0.8632987336
-0.8612631683
-0.8591823623
-0.8570572685
-0.8548888579
-0.8526781148
-0.850426056
-0.8481337047
-0.8458021197
-0.8434323654
-0.8410255439
-0.8385827638
-0.836105169
-0.8335930782
-0.8310493296
-0.8284742972
-0.8258691959
-0.8232352439
-0.8205736733
-0.817885527
-0.8151722567
-0.8124348417
-0.8096743785
-0.8068918479
-0.8040881144
-0.8012638344
-0.7984194044
-0.795555001
-0.7926701773
-0.7897645391
-0.7868359867
-0.7838852549
-0.7809021094
-0.7779136711
-0.7748285171
-0.7718465863
-0.7686738
-0.7655295987
-0.7625104102
-0.7595601964
-0.7556065544
-0.7079063777
-0.5144760578
-0.3508239336
-0.1986748439
-0.05811672652
0.07030379901
0.1863516622
0.2899011723
0.3809500475
0.4596157604
0.5261237886
0.5808019958
0.6240729119
0.6564457589
0.6785079081
0.6909158342
0.6943856038
0.6896829773
0.6776132071
0.6590106097
0.6347280065
0.6056261512
0.5725632306
0.5363846049
0.4979128776
0.4579384653
0.4172107971
0.3764302791
0.3362411627
0.2972254395
0.2598978719
0.224702231
0.1920088345
0.1621133833
0.135237132
0.1115283445
0.09106498805
0.07385857426
0.05985903324
0.04896046761
0.04100763931
0.03580300375
0.03311410801
0.03268116433
0.0342246141
0.0374525068
0.04206753306
0.04777357207
0.05428163361
0.06131510441
0.06861423463
0.07593982635
0.08307611147
0.08983283936
0.09604659505
0.1015814179
0.1063287702
0.1102069418
0.1131599685
0.1151561456
0.1161862223
0.1162613532
0.1154108783
0.1136799991
0.1111274081
0.1078229188
0.1038451414
0.09927923681
0.09421477529
0.08874372755
0.0829585997
0.0769507294
0.07080875159
0.06461724277
0.05845554636
0.05239678312
0.04650704888
0.04084479326
0.03546038117
0.03039582899
0.02568470821
0.02135220691
0.01741533986
0.0138832911
0.01075787748
0.008034114557
0.005700870809
0.003741589799
0.00213506406
0.0008562417031
-0.0001229522538
-0.0008327965565
-0.001304973689
-0.001571803691
-0.001665526208
-0.001617642543
-0.001458328196
-0.001215923796
-0.0009165109761
-0.000583576275
-0.0002377653181
0.0001032738109
0.0004249605823
0.000715770205
0.0009671464939
0.001173347337
0.001331232297
0.001440002247
0.001500902578
0.001516900437
0.001492347935
0.001432641708
0.00134388945
0.00123259255
0.001105352998
0.000968611756
0.0008284234482
0.0006902715171
0.0005589258955
0.0004383437126
0.0003316120268
0.000240930232
0.0001676288074
0.0001122193816
7.447111719e-05
5.350748431e-05
4.791730777e-05
5.587437504e-05
7.525918553e-05
0.0001037783917
0.0001390768206
0.0001788383234
0.0002208727468
0.0002631866997
0.0003040374444
0.0003419692651
0.0003758331196
0.0004047908329
0.0004283055169
0.000446120418
0.0004582285626
0.0004648361227
0.0004663213146
0.0004631919084
0.0004560432548
0.0004455183198
0.000432271987
0.0004169397861
0.0004001127778
0.0003823179527
0.0003640050361
0.0003455387534
0.0003271965035
0.0003091705571
0.0002915739127
0.0002744491015
0.0002577791173
0.0002414993416
0.0002255099884
0.000209688394
0.000193900427
0.0001780107405
0.0001618917197
0.000145430529
0.0001285347455
0.0001111361815
9.319313822e-05
7.469140211e-05
5.564391763e-05
3.608951472e-05
1.609082682e-05
-4.268243355e-06
-2.488560461e-05
-4.564411465e-05
-6.641488103e-05
-8.706041916e-05
-0.0001074377579
-0.0001274012731
-0.0001468053293
-0.0001655065305
-0.0001833659024
-0.0002002505912
-0.0002160354497
-0.0002306043578
-0.0002438513562
-0.0002556815912
-0.0002660122005
-0.0002747730342
-0.0002819073588
-0.0002873724431
-0.0002911402553
-0.0002931979792
-0.0002935485227
-0.0002922111314
-0.0002892216987
-0.000284633139
-0.0002785155103
-0.0002709560093
-0.0002620586462
-0.0002519436771
-0.0002407467331
-0.0002286174444
-0.0002157178377
-0.0002022202726
-0.0001883049857
-0.000174157348
-0.0001599647625
-0.0001459134079
-0.0001321848067
-0.0001189523555
-0.000106377927
-9.460861017e-05
-8.377377291e-05
-7.398242789e-05
-6.532111824e-05
-5.785231457e-05
-5.161336749e-05
-4.661614128e-05
-4.284722317e-05
-4.026882817e-05
-3.882022578e-05
-3.841981306e-05
-3.896759178e-05
-4.034807518e-05
-4.243353591e-05
-4.508736649e-05
-4.816762091e-05
-5.153046288e-05
-5.503342415e-05
-5.853849967e-05
-6.191477883e-05
-6.504068726e-05
-6.780571854e-05
-7.011170985e-05
-7.18736136e-05
-7.301985697e-05
-7.349247538e-05
-7.324688985e-05
-7.225158919e-05
-7.048752352e-05
-6.794709001e-05
-6.463244896e-05
-6.055277062e-05
-5.572000981e-05
-5.0142886e-05
-4.381817413e-05
-3.671751406e-05
-2.875649921e-05
-1.974020466e-05
-8.687500069e-06
)
;

boundaryField
{
    inlet
    {
        type            calculated;
        value           uniform 0;
    }
    outlet
    {
        type            calculated;
        value           uniform 1.528637517e-05;
    }
    wall
    {
        type            empty;
    }
}


// ************************************************************************* //
