/*--------------------------------*- C++ -*----------------------------------*\
  =========                 |
  \\      /  F ield         | OpenFOAM: The Open Source CFD Toolbox
   \\    /   O peration     | Website:  https://openfoam.org
    \\  /    A nd           | Version:  7
     \\/     M anipulation  |
\*---------------------------------------------------------------------------*/
FoamFile
{
    version     2.0;
    format      ascii;
    class       volScalarField;
    location    "0.000558243009";
    object      ddt0(rho,HCCO);
}
// * * * * * * * * * * * * * * * * * * * * * * * * * * * * * * * * * * * * * //

dimensions      [1 -3 -1 0 0 0 0];

internalField   nonuniform List<scalar> 
1500
(
-9.213868894e-29
-2.074693932e-28
-1.935133577e-28
-1.080428586e-28
-3.978753186e-29
-5.372205446e-30
7.224070257e-30
8.8590393e-30
5.2982815e-30
-5.859339817e-31
-7.349731438e-30
-1.422749034e-29
-2.081313206e-29
-2.684873505e-29
-3.215043945e-29
-3.657211054e-29
-4.000100713e-29
-4.235972789e-29
-4.360741786e-29
-4.37392167e-29
-4.278357173e-29
-4.079812255e-29
-3.786490389e-29
-3.408536827e-29
-2.957553182e-29
-2.446139161e-29
-1.887468009e-29
-1.294899804e-29
-6.816390281e-30
-6.04447079e-31
5.565984697e-30
1.158242552e-29
1.734172128e-29
2.275040224e-29
2.772457943e-29
3.218956645e-29
3.607943033e-29
3.933666125e-29
4.19121044e-29
4.37652344e-29
4.486478432e-29
4.518967319e-29
4.473011298e-29
4.348873753e-29
4.148158333e-29
3.873875948e-29
3.530467377e-29
3.123772513e-29
2.660942647e-29
2.150297138e-29
1.601131063e-29
1.023484019e-29
4.278829271e-30
-1.749271963e-30
-7.742509723e-30
-1.359696822e-29
-1.92140786e-29
-2.450262684e-29
-2.9380421e-29
-3.377560613e-29
-3.762763576e-29
-4.088792134e-29
-4.352018917e-29
-4.550057404e-29
-4.681747476e-29
-4.74711886e-29
-4.747333646e-29
-4.684608506e-29
-4.562116959e-29
-4.383872514e-29
-4.154594241e-29
-3.879557543e-29
-3.564434288e-29
-3.215127733e-29
-2.837608791e-29
-2.43776074e-29
-2.021239739e-29
-1.593357751e-29
-1.158993043e-29
-7.225319832e-30
-2.878432054e-30
1.417166039e-30
5.63268673e-30
9.743548341e-30
1.372863354e-29
1.756945112e-29
2.124927483e-29
2.475232683e-29
2.80630639e-29
3.116561443e-29
3.404339599e-29
3.667893002e-29
3.905385549e-29
4.114912925e-29
4.294539145e-29
4.442346707e-29
4.556496679e-29
4.635294948e-29
4.677260612e-29
4.681192673e-29
4.646231182e-29
4.571909692e-29
4.458196007e-29
4.305519193e-29
4.114781446e-29
3.887354267e-29
3.62505942e-29
3.330136171e-29
3.005196703e-29
2.653172961e-29
2.277257996e-29
1.880845462e-29
1.467470523e-29
1.040755121e-29
6.04359858e-30
1.619436565e-30
-2.828682684e-30
-7.265088981e-30
-1.165487738e-29
-1.596405e-29
-2.015963987e-29
-2.420983872e-29
-2.808415039e-29
-3.175358134e-29
-3.51908753e-29
-3.837078969e-29
-4.127040242e-29
-4.386943255e-29
-4.615055262e-29
-4.809966908e-29
-4.970614844e-29
-5.096297059e-29
-5.186679645e-29
-5.241794507e-29
-5.262028272e-29
-5.24810353e-29
-5.201053963e-29
-5.122195549e-29
-5.013096129e-29
-4.875545463e-29
-4.711527702e-29
-4.523197555e-29
-4.312860721e-29
-4.082958288e-29
-3.836054328e-29
-3.574824715e-29
-3.302045067e-29
-3.020575395e-29
-2.733338811e-29
-2.44329217e-29
-2.15338705e-29
-1.866520294e-29
-1.585474379e-29
-1.312849141e-29
-1.05098727e-29
-8.018973891e-30
-5.671790907e-30
-3.479550915e-30
-1.448157374e-30
4.221904429e-31
2.137158865e-30
3.708187515e-30
5.152122355e-30
6.490569326e-30
7.748982505e-30
8.955517904e-30
1.013970277e-29
1.133098549e-29
1.255724299e-29
1.384333192e-29
1.520977055e-29
1.667163709e-29
1.823775959e-29
1.991025802e-29
2.168447838e-29
2.354933198e-29
2.548802768e-29
2.747915237e-29
2.949802863e-29
3.151825437e-29
3.351330991e-29
3.545810958e-29
3.733037512e-29
3.91117203e-29
4.078835779e-29
4.23513732e-29
4.379654929e-29
4.512376394e-29
4.633602934e-29
4.743827121e-29
4.843597505e-29
4.933383592e-29
5.013454496e-29
5.083782936e-29
5.143983072e-29
5.193286789e-29
5.230558868e-29
5.254347462e-29
5.262963305e-29
5.254578969e-29
5.227339447e-29
5.179475982e-29
5.109417459e-29
5.015896269e-29
4.898047967e-29
4.755505834e-29
4.58849126e-29
4.397899318e-29
4.18537496e-29
3.953370399e-29
3.70516876e-29
3.44485443e-29
3.177208419e-29
2.907508748e-29
2.641222372e-29
2.383587035e-29
2.139098835e-29
1.910941286e-29
1.700413762e-29
1.5064366e-29
1.325223977e-29
1.150219312e-29
9.72379335e-30
7.808688357e-30
5.641891705e-30
3.117110357e-30
1.55194896e-31
-3.275863875e-30
-7.141593842e-30
-1.132505074e-29
-1.561715651e-29
-1.971631195e-29
-2.323983786e-29
-2.574896718e-29
-2.678787639e-29
-2.593564084e-29
-2.286815254e-29
-1.742515177e-29
-9.675810106e-30
2.494177248e-32
1.099772972e-29
2.22256737e-29
3.237385052e-29
3.984541504e-29
4.287677877e-29
3.966869216e-29
2.855375612e-29
8.190653444e-30
-2.218144819e-29
-6.263659747e-29
-8.837153369e-29
-9.196203889e-29
-9.530616089e-29
-9.866271047e-29
-1.020648015e-28
-1.055064621e-28
-1.089824522e-28
-1.124917307e-28
-1.160346863e-28
-1.196117632e-28
-1.232229601e-28
-1.268679006e-28
-1.305459846e-28
-1.34256551e-28
-1.379989361e-28
-1.417725036e-28
-1.455766627e-28
-1.494108479e-28
-1.532745105e-28
-1.571671054e-28
-1.610880934e-28
-1.650369436e-28
-1.690131139e-28
-1.730160715e-28
-1.770452761e-28
-1.811002165e-28
-1.851803651e-28
-1.892852189e-28
-1.934142715e-28
-1.975670498e-28
-2.017430758e-28
-2.059419042e-28
-2.101630994e-28
-2.144062475e-28
-2.186709698e-28
-2.229568997e-28
-2.272637033e-28
-2.315910857e-28
-2.359387764e-28
-2.403065431e-28
-2.446941972e-28
-2.491015911e-28
-2.535286243e-28
-2.579752369e-28
-2.62441432e-28
-2.669272645e-28
-2.71432841e-28
-2.759583386e-28
-2.805040016e-28
-2.850701338e-28
-2.896571233e-28
-2.942654277e-28
-2.988955942e-28
-3.035482444e-28
-3.082240966e-28
-3.129239617e-28
-3.176487499e-28
-3.223994725e-28
-3.271772445e-28
-3.319832928e-28
-3.368189672e-28
-3.416857255e-28
-3.465851622e-28
-3.515189901e-28
-3.564890655e-28
-3.614973703e-28
-3.665460416e-28
-3.716373592e-28
-3.767737487e-28
-3.819578038e-28
-3.871922672e-28
-3.924800509e-28
-3.978242303e-28
-4.032280667e-28
-4.086949792e-28
-4.14228587e-28
-4.198326739e-28
-4.255112238e-28
-4.312684028e-28
-4.371085769e-28
-4.430363027e-28
-4.49056335e-28
-4.55173637e-28
-4.613933525e-28
-4.677208559e-28
-4.74161702e-28
-4.807216683e-28
-4.87406726e-28
-4.94223048e-28
-5.011770217e-28
-5.082752308e-28
-5.155244573e-28
-5.229316869e-28
-5.305040954e-28
-5.382490511e-28
-5.461741143e-28
-5.542870167e-28
-5.625956761e-28
-5.711081748e-28
-5.798327609e-28
-5.887778375e-28
-5.979519458e-28
-6.073637795e-28
-6.170221375e-28
-6.269359518e-28
-6.371142499e-28
-6.475661385e-28
-6.58300813e-28
-6.693275243e-28
-6.806555636e-28
-6.922942526e-28
-7.042529213e-28
-7.165408824e-28
-7.291674275e-28
-7.421417886e-28
-7.554731302e-28
-7.691705069e-28
-7.832428759e-28
-7.976990205e-28
-8.125475674e-28
-8.277969363e-28
-8.43455323e-28
-8.595306633e-28
-8.760306031e-28
-8.929624795e-28
-9.1033326e-28
-9.281495512e-28
-9.464175235e-28
-9.65142913e-28
-9.84330957e-28
-1.003986375e-27
-1.024113331e-27
-1.044715393e-27
-1.065795505e-27
-1.087355928e-27
-1.109398216e-27
-1.131923196e-27
-1.154930893e-27
-1.178420514e-27
-1.202390422e-27
-1.226838054e-27
-1.251759929e-27
-1.277151584e-27
-1.303007556e-27
-1.329321316e-27
-1.356085269e-27
-1.38329068e-27
-1.410927678e-27
-1.438985201e-27
-1.46745096e-27
-1.496311424e-27
-1.525551768e-27
-1.555155882e-27
-1.585106299e-27
-1.615384208e-27
-1.645969407e-27
-1.676840294e-27
-1.707973855e-27
-1.739345626e-27
-1.770929702e-27
-1.802698718e-27
-1.834623831e-27
-1.866674744e-27
-1.898819655e-27
-1.931025308e-27
-1.963256983e-27
-1.995478468e-27
-2.027652126e-27
-2.059738867e-27
-2.09169819e-27
-2.123488204e-27
-2.155065621e-27
-2.186385845e-27
-2.217402961e-27
-2.248069779e-27
-2.27833789e-27
-2.308157721e-27
-2.337478548e-27
-2.366248592e-27
-2.394415073e-27
-2.421924238e-27
-2.44872148e-27
-2.474751388e-27
-2.499957822e-27
-2.524283986e-27
-2.547672564e-27
-2.570065741e-27
-2.591405366e-27
-2.611632998e-27
-2.630690049e-27
-2.648517887e-27
-2.665057922e-27
-2.680251763e-27
-2.694041303e-27
-2.70636888e-27
-2.717177393e-27
-2.726410413e-27
-2.734012357e-27
-2.739928615e-27
-2.74410569e-27
-2.74649134e-27
-2.747034762e-27
-2.745686689e-27
-2.742399651e-27
-2.737127987e-27
-2.729828145e-27
-2.7204588e-27
-2.708980992e-27
-2.695358341e-27
-2.679557234e-27
-2.661546919e-27
-2.641299832e-27
-2.618791602e-27
-2.594001405e-27
-2.566912024e-27
-2.537510095e-27
-2.505786351e-27
-2.47173571e-27
-2.435357545e-27
-2.396655853e-27
-2.355639505e-27
-2.312322419e-27
-2.26672375e-27
-2.218868151e-27
-2.168785976e-27
-2.116513493e-27
-2.062093101e-27
-2.005573607e-27
-1.947010443e-27
-1.886465843e-27
-1.82400922e-27
-1.759717365e-27
-1.693674659e-27
-1.62597346e-27
-1.556714264e-27
-1.486006116e-27
-1.413966848e-27
-1.340723422e-27
-1.266412289e-27
-1.19117969e-27
-1.115182035e-27
-1.038586334e-27
-9.615705737e-28
-8.843241131e-28
-8.070481742e-28
-7.299563591e-28
-6.532750366e-28
-5.772439293e-28
-5.021168164e-28
-4.281618513e-28
-3.55662451e-28
-2.849179272e-28
-2.162441407e-28
-1.499745424e-28
-8.646209924e-29
-2.608530833e-29
3.072746979e-29
8.339638119e-29
1.30784748e-28
1.696683505e-28
1.894249771e-28
1.561575921e-28
-1.914501528e-29
-4.247428228e-28
-1.021026452e-27
-1.934159699e-27
-3.376632848e-27
-4.77562629e-27
-5.995020737e-27
-6.989484524e-27
-7.728975129e-27
-8.187740324e-27
-8.341221792e-27
-8.164970292e-27
-7.636226999e-27
-6.7383337e-27
-5.486862628e-27
-4.101592775e-27
-3.476792202e-27
-2.927677003e-27
-2.349424212e-27
-1.838261159e-27
-1.573747991e-27
-1.592832481e-27
-1.784854894e-27
-2.059212025e-27
-2.38067268e-27
-2.738920508e-27
-3.132300635e-27
-3.561897216e-27
-4.029670099e-27
-4.537918731e-27
-5.089142104e-27
-5.686011273e-27
-6.331370572e-27
-7.028249288e-27
-7.779875946e-27
-8.589694099e-27
-9.461380812e-27
-1.039886705e-26
-1.140635981e-26
-1.248836794e-26
-1.364972984e-26
-1.489564622e-26
-1.62317151e-26
-1.76639733e-26
-1.919894205e-26
-2.084367941e-26
-2.260584017e-26
-2.449374324e-26
-2.651645002e-26
-2.868385271e-26
-3.100677671e-26
-3.349709719e-26
-3.616787454e-26
-3.903350863e-26
-4.21099182e-26
-4.541474701e-26
-4.896760202e-26
-5.279032992e-26
-5.690733486e-26
-6.134594934e-26
-6.613686152e-26
-7.131461256e-26
-7.691817143e-26
-8.299160531e-26
-8.958485453e-26
-9.675463546e-26
-1.045654876e-25
-1.130909927e-25
-1.224151904e-25
-1.326342258e-25
-1.438582651e-25
-1.562137248e-25
-1.69845867e-25
-1.849218188e-25
-2.016340894e-25
-2.202046662e-25
-2.408897864e-25
-2.639855022e-25
-2.898341622e-25
-3.18831984e-25
-3.514378858e-25
-3.881838104e-25
-4.296867989e-25
-4.766631287e-25
-5.299448952e-25
-5.904994985e-25
-6.594525974e-25
-7.381152325e-25
-8.280159978e-25
-9.309393858e-25
-1.048971766e-24
-1.184556922e-24
-1.34056376e-24
-1.520369755e-24
-1.727965152e-24
-1.968085074e-24
-2.246379914e-24
-2.569639279e-24
-2.94609228e-24
-3.385818594e-24
-3.901322613e-24
-4.508351194e-24
-5.227079249e-24
-6.083856463e-24
-7.113816682e-24
-8.36482282e-24
-9.903490577e-24
-1.182446293e-23
-1.426478793e-23
-1.742633366e-23
-2.16108967e-23
-2.727540675e-23
-3.511901681e-23
-4.622088625e-23
-6.225870889e-23
-8.585608972e-23
-1.211359001e-22
-1.746035105e-22
-2.565592966e-22
-3.83361945e-22
-5.810620591e-22
-8.912473927e-22
-1.380467172e-21
-2.15547716e-21
-3.388071139e-21
-5.356271903e-21
-8.516162609e-21
-1.364341909e-20
-2.218353643e-20
-3.739714696e-20
-5.695205231e-20
-9.069373463e-20
-1.432262665e-19
-2.533008492e-19
-3.835881033e-19
-6.472315625e-19
-1.036326876e-18
-1.735983519e-18
-2.919321878e-18
-4.894852788e-18
-8.246479264e-18
-1.398341289e-17
-2.388510723e-17
-4.112686998e-17
-7.144034451e-17
-1.252987388e-16
-2.220923307e-16
-3.98227546e-16
-7.230763009e-16
-1.3308481e-15
-2.485100515e-15
-4.711085076e-15
-9.06890377e-15
-1.771914498e-14
-3.50972068e-14
-7.035130387e-14
-1.424528804e-13
-2.912662739e-13
-6.034287097e-13
-1.280793547e-12
-2.847469035e-12
-6.838304955e-12
-1.817710401e-11
-5.335942885e-11
-1.678678738e-10
-5.446956029e-10
-1.768738944e-09
-5.642350563e-09
-1.750976632e-08
-5.261334946e-08
-1.52781347e-07
-4.285202074e-07
-1.161081856e-06
-3.040522637e-06
-7.699973969e-06
-1.88696472e-05
-4.4775704e-05
-0.0001029391491
-0.0002295490983
-0.0004974279001
-0.001046865703
-0.002136556554
-0.004230474238
-0.008148955685
-0.01527392567
-0.02785100291
-0.04945457127
-0.08539861837
-0.1441164781
-0.2376225316
-0.3839134437
-0.5952932513
-0.8907076052
-1.295250102
-1.830910737
-2.517348787
-3.365278309
-4.368203726
-5.464458889
-6.565994821
-7.580010919
-8.207344706
-9.217810299
-8.069151116
-5.32877444
-0.4151173566
5.660765684
16.94330728
31.85081749
50.13271874
65.88629127
87.79290277
109.2552162
128.5887755
144.6924923
157.822048
167.7448214
173.8223629
178.1880415
179.6402924
176.5762926
169.3433726
158.2880366
143.7442039
126.3778597
107.9193877
90.98124608
74.09590639
58.0256017
43.6382739
30.90390679
19.21538199
8.619238039
-0.5920748771
-8.47736208
-12.03615182
-14.39777877
-16.83938893
-17.98402155
-18.22102037
-17.85207802
-17.09358002
-16.09659001
-14.94013673
-13.74267776
-12.53065102
-11.34074115
-10.19819216
-9.119636731
-8.115206891
-7.190139184
-6.346030804
-5.581833088
-4.894645497
-4.280302514
-3.733875056
-3.250026833
-2.823281337
-2.448215972
-2.119597892
-1.832474628
-1.582229532
-1.364611107
-1.175743039
-1.012120378
-0.8705961504
-0.7483618019
-0.6429238132
-0.5520783785
-0.4738854844
-0.4066433277
-0.3488637173
-0.2992488769
-0.2566698936
-0.2201469341
-0.1888312603
-0.1619890136
-0.1389866916
-0.1192782201
-0.1023935009
-0.08792831262
-0.07553544001
-0.06491690862
-0.05581720803
-0.04801739437
-0.04132997053
-0.03559445149
-0.03067353075
-0.02644977238
-0.02282276137
-0.01970665219
-0.01702806293
-0.01472426824
-0.01274165044
-0.01103437306
-0.009563245878
-0.008294754403
-0.007200230584
-0.006255144496
-0.005438499628
-0.004732316802
-0.004121193841
-0.003591929939
-0.003133205258
-0.002735307643
-0.002389899523
-0.002089819068
-0.00182891055
-0.001601879577
-0.001404169533
-0.001231856084
-0.00108155707
-0.000950355521
-0.0008357338442
-0.0007355175452
-0.0006478270728
-0.0005710365946
-0.0005037386851
-0.0004447140615
-0.0003929056289
-0.0003473962075
-0.0003073894074
-0.0002721931945
-0.0002412057593
-0.0002139033574
-0.0001898298399
-0.0001685876313
-0.0001498299492
-0.0001332540914
-0.0001185956331
-0.0001056234342
-9.413527896e-05
-8.395414544e-05
-7.492494786e-05
-6.691172465e-05
-5.979519468e-05
-5.347063748e-05
-4.784605139e-05
-4.284055265e-05
-3.838298268e-05
-3.441069571e-05
-3.086850268e-05
-2.770775058e-05
-2.488551927e-05
-2.236392047e-05
-2.010948532e-05
-1.809262914e-05
-1.628718314e-05
-1.466998473e-05
-1.322051852e-05
-1.192060182e-05
-1.075410884e-05
-9.706728584e-06
-8.765752368e-06
-7.919887071e-06
-7.159090966e-06
-6.474429319e-06
-5.857947256e-06
-5.302557776e-06
-4.801943086e-06
-4.350467559e-06
-3.943100929e-06
-3.575350485e-06
-3.243201155e-06
-2.943062525e-06
-2.671722005e-06
-2.426303319e-06
-2.204229791e-06
-2.003191777e-06
-1.821117795e-06
-1.656148906e-06
-1.506615959e-06
-1.371019395e-06
-1.248011246e-06
-1.136379189e-06
-1.035032311e-06
-9.429884205e-07
-8.593627756e-07
-7.833580017e-07
-7.142551193e-07
-6.514055079e-07
-5.942237635e-07
-5.421812766e-07
-4.948005091e-07
-4.516498674e-07
-4.123391114e-07
-3.765152438e-07
-3.438588219e-07
-3.140806478e-07
-2.869188086e-07
-2.621360038e-07
-2.395171537e-07
-2.188672467e-07
-2.000094004e-07
-1.827831275e-07
-1.670427575e-07
-1.526560319e-07
-1.395028241e-07
-1.274739961e-07
-1.164703617e-07
-1.064017521e-07
-9.71861676e-08
-8.874902286e-08
-8.102245554e-08
-7.394469771e-08
-6.745951627e-08
-6.151570652e-08
-5.606662852e-08
-5.106978404e-08
-4.648644633e-08
-4.228131163e-08
-3.84221931e-08
-3.487973267e-08
-3.16271494e-08
-2.864000702e-08
-2.58960038e-08
-2.337478166e-08
-2.105774697e-08
-1.892791986e-08
-1.696978729e-08
-1.516917366e-08
-1.351312089e-08
-1.198978447e-08
-1.058833232e-08
-9.298856323e-09
-8.112289241e-09
-7.020333549e-09
-6.015392633e-09
-5.090511152e-09
-4.239320155e-09
-3.45598009e-09
-2.735141862e-09
-2.071899587e-09
-1.461755875e-09
-9.005841879e-10
-3.845973035e-10
8.968072354e-11
5.254422075e-10
9.256205878e-10
1.292910378e-09
1.629790186e-09
1.938539054e-09
2.221254829e-09
2.479866979e-09
2.716153521e-09
2.931752003e-09
3.128173261e-09
3.306809365e-09
3.468944942e-09
3.615766414e-09
3.748369584e-09
3.867765416e-09
3.974890987e-09
4.070612639e-09
4.155731506e-09
4.23099026e-09
4.297077216e-09
4.354631028e-09
4.404244061e-09
4.446465293e-09
4.481805389e-09
4.510739418e-09
4.533708032e-09
4.551123454e-09
4.563368223e-09
4.570799322e-09
4.573749662e-09
4.572529059e-09
4.56742801e-09
4.55871701e-09
4.546649757e-09
4.53146304e-09
4.513379055e-09
4.492604928e-09
4.469334989e-09
4.443751959e-09
4.416028044e-09
4.386322736e-09
4.354787727e-09
4.321564348e-09
4.286786087e-09
4.250577857e-09
4.213057566e-09
4.174335961e-09
4.134517606e-09
4.093700942e-09
4.051978745e-09
4.009437996e-09
3.966161196e-09
3.922226691e-09
3.877706539e-09
3.832669765e-09
3.787181719e-09
3.74130294e-09
3.695092008e-09
3.648603286e-09
3.601887866e-09
3.554994202e-09
3.507967789e-09
3.460851953e-09
3.413687353e-09
3.366512094e-09
3.319362497e-09
3.272272126e-09
3.225273003e-09
3.178395026e-09
3.131666651e-09
3.085113939e-09
3.038761866e-09
2.992633712e-09
2.946751577e-09
2.901135644e-09
2.855804865e-09
2.810777372e-09
2.766069588e-09
2.721697072e-09
2.677674317e-09
2.634014291e-09
2.590729957e-09
2.547832512e-09
2.505332343e-09
2.463238999e-09
2.421561517e-09
2.380307938e-09
2.339485877e-09
2.299101915e-09
2.2591617e-09
2.219670855e-09
2.180634177e-09
2.142055711e-09
2.103939403e-09
2.066288512e-09
2.029105265e-09
1.992391954e-09
1.956150234e-09
1.920381596e-09
1.885086721e-09
1.850266108e-09
1.815920027e-09
1.782048203e-09
1.748650112e-09
1.715725198e-09
1.683272387e-09
1.651289829e-09
1.619776549e-09
1.588730252e-09
1.558148871e-09
1.528030203e-09
1.4983712e-09
1.469169713e-09
1.440422857e-09
1.412127249e-09
1.384279699e-09
1.356877169e-09
1.329915714e-09
1.303392e-09
1.277302018e-09
1.251642334e-09
1.226408643e-09
1.201597031e-09
1.177203158e-09
1.153222863e-09
1.129651898e-09
1.10648582e-09
1.083720445e-09
1.061351282e-09
1.039373666e-09
1.01778303e-09
9.965747034e-10
9.757439923e-10
9.552864571e-10
9.351972608e-10
9.154716686e-10
8.961051798e-10
8.770928727e-10
8.584302775e-10
8.401124891e-10
8.221347634e-10
8.044924186e-10
7.871807335e-10
7.701949858e-10
7.535304245e-10
7.371824153e-10
7.211462867e-10
7.054174483e-10
6.899913505e-10
6.748635353e-10
6.600291581e-10
6.454834831e-10
6.312222279e-10
6.172408831e-10
6.035351665e-10
5.901006756e-10
5.769329947e-10
5.640276079e-10
5.51380222e-10
5.38986678e-10
5.268427525e-10
5.149443424e-10
5.032873312e-10
4.918674814e-10
4.806807811e-10
4.697231145e-10
4.589905914e-10
4.484794192e-10
4.381856641e-10
4.28105564e-10
4.18235087e-10
4.08570708e-10
3.99108698e-10
3.898453711e-10
3.807771345e-10
3.71900508e-10
3.632119024e-10
3.547078451e-10
3.463849337e-10
3.382398237e-10
3.302692671e-10
3.22469884e-10
3.148384877e-10
3.073718494e-10
3.000668502e-10
2.929205149e-10
2.859296943e-10
2.790914926e-10
2.724028596e-10
2.658610276e-10
2.594630441e-10
2.532061879e-10
2.470876187e-10
2.411045292e-10
2.352543655e-10
2.295344351e-10
2.239421121e-10
2.18474863e-10
2.131302825e-10
2.079058007e-10
2.027989634e-10
1.978074922e-10
1.929289086e-10
1.881610882e-10
1.835017185e-10
1.789486049e-10
1.744994176e-10
1.701520181e-10
1.659043305e-10
1.617543322e-10
1.576998908e-10
1.537390547e-10
1.498698537e-10
1.460903982e-10
1.423987703e-10
1.387931253e-10
1.352716511e-10
1.318325236e-10
1.284739771e-10
1.25194296e-10
1.219919051e-10
1.188650398e-10
1.158120658e-10
1.128313391e-10
1.099212625e-10
1.07080403e-10
1.0430732e-10
1.016005012e-10
9.895850424e-11
9.637977178e-11
9.386295907e-11
9.140678916e-11
8.900990351e-11
8.667090451e-11
8.43885807e-11
8.216170601e-11
7.998903075e-11
7.786933841e-11
7.580145485e-11
7.378418923e-11
7.181646968e-11
6.989714975e-11
6.802503776e-11
6.619920816e-11
6.441855408e-11
6.268206644e-11
6.098873183e-11
5.933765214e-11
5.772786434e-11
5.615835631e-11
5.462826235e-11
5.313667914e-11
5.168274718e-11
5.026559391e-11
4.888440981e-11
4.75384544e-11
4.62268535e-11
4.494882044e-11
4.370361052e-11
4.249048447e-11
4.130872698e-11
4.0157592e-11
3.903639617e-11
3.794452248e-11
3.688129904e-11
3.584607158e-11
3.483823714e-11
3.385720643e-11
3.290238175e-11
3.19731623e-11
3.106895959e-11
3.018921593e-11
2.933339933e-11
2.850102234e-11
2.7691617e-11
2.690461317e-11
2.613963515e-11
2.539617274e-11
2.467377313e-11
2.397201416e-11
2.32903959e-11
2.262853908e-11
2.198604948e-11
2.136249284e-11
2.075745378e-11
2.017047396e-11
1.960112031e-11
1.904880576e-11
1.851294576e-11
1.799263071e-11
1.748671266e-11
1.699371717e-11
1.651152564e-11
1.603702184e-11
1.55665558e-11
1.509316e-11
1.46103516e-11
1.410570538e-11
1.356370227e-11
1.296447433e-11
1.228711388e-11
5.867237292e-12
6.789687403e-12
4.293076546e-12
2.63490724e-12
1.57663264e-12
9.015366865e-13
4.77471454e-13
2.162646584e-13
6.052682029e-14
-2.800794509e-14
-7.518927929e-14
-9.800345973e-14
-1.072421694e-13
-1.099836007e-13
-1.110024063e-13
-1.130452455e-13
-1.178959729e-13
-1.265041841e-13
-1.396668298e-13
-1.576103474e-13
-1.805492273e-13
-2.086269282e-13
-2.418800334e-13
-2.801500788e-13
-3.235063065e-13
-3.717330038e-13
-4.247368829e-13
-4.823475387e-13
-5.443579654e-13
-6.105378796e-13
-6.806404744e-13
-7.543266375e-13
-8.312645379e-13
-9.110702385e-13
-9.932743936e-13
-1.077424186e-12
-1.162986705e-12
-1.249386e-12
-1.335997336e-12
-1.422164584e-12
-1.507190492e-12
-1.590352397e-12
-1.670889134e-12
-1.748049565e-12
-1.821054639e-12
-1.889153772e-12
-1.951584543e-12
-2.007606819e-12
-2.056618082e-12
-2.097949053e-12
-2.1310977e-12
-2.155596653e-12
-2.171103573e-12
-2.177382332e-12
-2.174272485e-12
-2.161744228e-12
-2.139972607e-12
-2.109188261e-12
-2.069704248e-12
-2.022023744e-12
-1.966682923e-12
-1.904376364e-12
-1.835821028e-12
-1.761839688e-12
-1.683269741e-12
-1.601004293e-12
-1.515929154e-12
-1.428936941e-12
-1.340894903e-12
-1.252636787e-12
-1.164947194e-12
-1.078548224e-12
-9.940995134e-13
-9.121798544e-13
-8.332845525e-13
-7.5784062e-13
-6.861724916e-13
-6.185245469e-13
-5.550801728e-13
-4.959262835e-13
-4.410917855e-13
-3.90543782e-13
-3.441903641e-13
-3.019005196e-13
-2.635061365e-13
-2.288026096e-13
-1.975666388e-13
-1.695617798e-13
-1.445424862e-13
-1.222624044e-13
-1.024783959e-13
-8.495746659e-14
-6.947283713e-14
-5.581791302e-14
-4.379730109e-14
-3.323455204e-14
-2.396974869e-14
-1.58605382e-14
-8.780562877e-15
-2.618661006e-15
2.722244334e-15
7.327097993e-15
1.126977308e-14
1.461514318e-14
1.742079461e-14
1.973799014e-14
2.161338145e-14
2.309001308e-14
2.420823093e-14
2.500587819e-14
2.552015453e-14
2.578604905e-14
2.583781895e-14
2.570846081e-14
2.542947031e-14
2.503094868e-14
2.454055109e-14
2.398426797e-14
2.338501678e-14
2.276309183e-14
2.213594864e-14
2.151754406e-14
2.091907596e-14
2.034786737e-14
1.980907908e-14
1.930456752e-14
1.883380969e-14
1.839391941e-14
1.798070124e-14
1.758825333e-14
1.720976733e-14
1.683810726e-14
1.646569393e-14
1.608583469e-14
1.569167646e-14
1.527754178e-14
1.483863077e-14
1.437137306e-14
1.387341637e-14
1.334305913e-14
1.278079352e-14
1.218723519e-14
1.156465465e-14
1.091512182e-14
1.024265941e-14
9.550603313e-15
8.843200471e-15
8.124869402e-15
7.399801146e-15
6.672222143e-15
5.946059706e-15
5.224901532e-15
4.512331454e-15
3.811273589e-15
3.124338266e-15
2.453774439e-15
1.801399508e-15
1.169251511e-15
5.578903016e-16
-3.069800445e-17
-5.960269036e-16
-1.1376855e-15
-1.654606333e-15
-2.146371453e-15
-2.612730622e-15
-3.053586256e-15
-3.468859607e-15
-3.85815518e-15
-4.221544837e-15
-4.55956404e-15
-4.872458022e-15
-5.16066373e-15
-5.424875211e-15
-5.665808814e-15
-5.884456613e-15
-6.081968004e-15
-6.259922728e-15
-6.419574391e-15
-6.562603869e-15
-6.690657973e-15
-6.805763303e-15
-6.909831561e-15
-7.005038028e-15
-7.093475621e-15
-7.17719383e-15
-7.258260126e-15
-7.339046353e-15
-7.421294261e-15
-7.507160772e-15
-7.598482405e-15
-7.696888437e-15
-7.804005262e-15
-7.921254412e-15
-8.049598938e-15
-8.19013409e-15
-8.343574548e-15
-8.510134064e-15
-8.690095752e-15
-8.883080616e-15
-9.088902995e-15
-9.30646145e-15
-9.534679063e-15
-9.772137303e-15
-1.001699291e-14
-1.026715819e-14
-1.052034336e-14
-1.07738377e-14
-1.102465975e-14
-1.126979525e-14
-1.15058736e-14
-1.172941117e-14
-1.193672451e-14
-1.212442329e-14
-1.22885823e-14
-1.242560735e-14
-1.253185813e-14
-1.260405848e-14
-1.263864963e-14
-1.263259448e-14
-1.258305565e-14
-1.248743585e-14
-1.234353538e-14
-1.214950793e-14
-1.190377456e-14
-1.160537398e-14
-1.125368623e-14
-1.08485102e-14
-1.039012538e-14
-9.879295113e-15
-9.317356511e-15
-8.705836254e-15
-8.04703422e-15
-7.343409893e-15
-6.597909434e-15
-5.813772351e-15
-4.994813753e-15
-4.145347403e-15
-3.269479674e-15
-2.371849445e-15
-1.457281776e-15
-5.309783045e-16
4.017747184e-16
1.335955417e-15
2.265758401e-15
3.186193513e-15
4.091686475e-15
4.977371994e-15
5.838689667e-15
6.671871302e-15
7.478745475e-15
)
;

boundaryField
{
    inlet
    {
        type            calculated;
        value           uniform 0;
    }
    outlet
    {
        type            calculated;
        value           uniform 7.644126233e-15;
    }
    wall
    {
        type            empty;
    }
}


// ************************************************************************* //
