/*--------------------------------*- C++ -*----------------------------------*\
  =========                 |
  \\      /  F ield         | OpenFOAM: The Open Source CFD Toolbox
   \\    /   O peration     | Website:  https://openfoam.org
    \\  /    A nd           | Version:  7
     \\/     M anipulation  |
\*---------------------------------------------------------------------------*/
FoamFile
{
    version     2.0;
    format      ascii;
    class       volScalarField;
    location    "0.000558243009";
    object      ddt0(rho,CH3O);
}
// * * * * * * * * * * * * * * * * * * * * * * * * * * * * * * * * * * * * * //

dimensions      [1 -3 -1 0 0 0 0];

internalField   nonuniform List<scalar> 
1500
(
-1.516275347e-19
-4.668663564e-19
-7.188267031e-19
-7.443681596e-19
-5.812706405e-19
-3.645346397e-19
-1.912481266e-19
-8.646869517e-20
-3.46408225e-20
-1.295291155e-20
-5.262843347e-21
-3.132402624e-21
-2.906199233e-21
-3.221514105e-21
-3.620306541e-21
-3.963729336e-21
-4.212924904e-21
-4.358438326e-21
-4.399644154e-21
-4.338991285e-21
-4.18061549e-21
-3.930061096e-21
-3.594209442e-21
-3.181188932e-21
-2.700222619e-21
-2.161433444e-21
-1.575644176e-21
-9.542042435e-22
-3.088589996e-22
3.483413954e-22
1.005110278e-21
1.64899477e-21
2.267474438e-21
2.848109129e-21
3.378746548e-21
3.847789934e-21
4.244515489e-21
4.559417643e-21
4.784561373e-21
4.913912186e-21
4.943616167e-21
4.87220549e-21
4.700711064e-21
4.432671235e-21
4.074033878e-21
3.632957121e-21
3.119521593e-21
2.545372925e-21
1.923317389e-21
1.266895107e-21
5.899551484e-22
-9.374678243e-23
-7.709110248e-22
-1.429005443e-21
-2.056519433e-21
-2.643159539e-21
-3.179989375e-21
-3.659519528e-21
-4.075754301e-21
-4.42420209e-21
-4.701855157e-21
-4.907142973e-21
-5.039862226e-21
-5.101084067e-21
-5.093039622e-21
-5.018983642e-21
-4.883037848e-21
-4.690016547e-21
-4.44523946e-21
-4.15433867e-21
-3.823068364e-21
-3.457126828e-21
-3.062000518e-21
-2.642839058e-21
-2.204368196e-21
-1.75084461e-21
-1.286053678e-21
-8.133473025e-22
-3.357159377e-22
1.441134169e-22
6.235638247e-22
1.100090534e-21
1.571069386e-21
2.03370147e-21
2.484941526e-21
2.92145575e-21
3.339611796e-21
3.7355016e-21
4.104995177e-21
4.443821462e-21
4.747670812e-21
5.012313047e-21
5.233724014e-21
5.408213731e-21
5.532549489e-21
5.604067378e-21
5.620767172e-21
5.581385792e-21
5.48544647e-21
5.333281444e-21
5.126028063e-21
4.865599423e-21
4.554632105e-21
4.196414936e-21
3.794803734e-21
3.354127309e-21
2.879090558e-21
2.374679795e-21
1.84607464e-21
1.298569938e-21
7.375094353e-22
1.682313624e-22
-4.039748365e-22
-9.739034269e-22
-1.536461621e-21
-2.086696849e-21
-2.619825055e-21
-3.131262842e-21
-3.616664825e-21
-4.07196659e-21
-4.493432312e-21
-4.877704879e-21
-5.221855663e-21
-5.5234305e-21
-5.780488333e-21
-5.99162956e-21
-6.156011888e-21
-6.273352432e-21
-6.343916284e-21
-6.368492621e-21
-6.348360613e-21
-6.285248219e-21
-6.181286918e-21
-6.03896576e-21
-5.861087236e-21
-5.650726965e-21
-5.411197763e-21
-5.146017975e-21
-4.85888211e-21
-4.553631722e-21
-4.234223085e-21
-3.904688408e-21
-3.569087621e-21
-3.231447914e-21
-2.895690325e-21
-2.565543137e-21
-2.244444245e-21
-1.935435945e-21
-1.641057829e-21
-1.363243907e-21
-1.103231813e-21
-8.614916986e-22
-6.376825753e-22
-4.306420031e-22
-2.384145217e-22
-5.832056954e-23
1.129333712e-22
2.79107409e-22
4.442486311e-22
6.124886484e-22
7.878284873e-22
9.739236557e-22
1.17388237e-21
1.390090034e-21
1.624071694e-21
1.876402791e-21
2.146674405e-21
2.433516742e-21
2.734679792e-21
3.047166115e-21
3.367406564e-21
3.691466284e-21
4.015265385e-21
4.334797863e-21
4.646331636e-21
4.946573912e-21
5.23278979e-21
5.502865039e-21
5.755309809e-21
5.98920498e-21
6.204098868e-21
6.39986608e-21
6.576544265e-21
6.73416648e-21
6.872606879e-21
6.991455678e-21
7.089936646e-21
7.166874219e-21
7.220714166e-21
7.249594473e-21
7.251459898e-21
7.224209049e-21
7.165861287e-21
7.074729932e-21
6.949589201e-21
6.789823449e-21
6.595549968e-21
6.367708553e-21
6.108112438e-21
5.81945528e-21
5.505271223e-21
5.169841961e-21
4.81804754e-21
4.455158659e-21
4.086570334e-21
3.717485777e-21
3.35256434e-21
2.995560778e-21
2.648991553e-21
2.313874466e-21
1.989593291e-21
1.673937922e-21
1.363361435e-21
1.05347791e-21
7.39795254e-22
4.18641113e-22
8.820027468e-23
-2.504592044e-22
-5.925285038e-22
-9.289447658e-22
-1.246399028e-21
-1.528015867e-21
-1.754802397e-21
-1.907881768e-21
-1.971421899e-21
-1.936050737e-21
-1.802427677e-21
-1.584532351e-21
-1.31215539e-21
-1.032045551e-21
-8.07200317e-22
-7.138900377e-22
-8.361855366e-22
-1.258002696e-21
-2.052978798e-21
-3.27282324e-21
-4.93511072e-21
-7.011776473e-21
-9.419794393e-21
-1.201565941e-20
-1.459537701e-20
-1.690180476e-20
-1.864156272e-20
-1.951469748e-20
-1.926104562e-20
-1.772754988e-20
-1.494811372e-20
-1.120654953e-20
-6.936725092e-21
-2.237725365e-21
1.05806067e-21
1.511610283e-21
1.730618865e-21
1.893742155e-21
2.040142252e-21
2.176726409e-21
2.301805482e-21
2.411855936e-21
2.503229287e-21
2.573052503e-21
2.619185072e-21
2.639929096e-21
2.633820942e-21
2.599364124e-21
2.534993803e-21
2.439043723e-21
2.309687548e-21
2.144985531e-21
1.942878509e-21
1.701207426e-21
1.417685832e-21
1.089882716e-21
7.152782823e-22
2.911934589e-22
-1.851565753e-22
-7.167836046e-22
-1.306781713e-21
-1.958462781e-21
-2.675269188e-21
-3.460897122e-21
-4.319177209e-21
-5.254200308e-21
-6.270248739e-21
-7.371840937e-21
-8.563778844e-21
-9.851080759e-21
-1.123905451e-20
-1.273332282e-20
-1.433978551e-20
-1.606467075e-20
-1.791456086e-20
-1.98963923e-20
-2.201748549e-20
-2.428553327e-20
-2.670868338e-20
-2.929551466e-20
-3.205504679e-20
-3.499681634e-20
-3.813087661e-20
-4.146779027e-20
-4.50187218e-20
-4.879540782e-20
-5.281023908e-20
-5.70762286e-20
-6.160710402e-20
-6.641731504e-20
-7.152207591e-20
-7.693739622e-20
-8.268011252e-20
-8.876794191e-20
-9.521954585e-20
-1.020545096e-19
-1.092934691e-19
-1.169580824e-19
-1.250711489e-19
-1.33656587e-19
-1.427395711e-19
-1.523465332e-19
-1.625052176e-19
-1.73244802e-19
-1.845958853e-19
-1.965906091e-19
-2.092626937e-19
-2.226475749e-19
-2.367823751e-19
-2.517061117e-19
-2.674596544e-19
-2.840859185e-19
-3.016298904e-19
-3.201387737e-19
-3.396620515e-19
-3.602516137e-19
-3.819618948e-19
-4.048498981e-19
-4.289754787e-19
-4.544013089e-19
-4.811931526e-19
-5.094199178e-19
-5.391538359e-19
-5.704706706e-19
-6.034498334e-19
-6.381745781e-19
-6.747322166e-19
-7.132142876e-19
-7.5371679e-19
-7.963404213e-19
-8.411907646e-19
-8.883786093e-19
-9.380201684e-19
-9.902373882e-19
-1.04515824e-18
-1.102917009e-18
-1.163654708e-18
-1.22751931e-18
-1.294666257e-18
-1.365258765e-18
-1.439468239e-18
-1.517474791e-18
-1.599467646e-18
-1.685645643e-18
-1.776217777e-18
-1.871403736e-18
-1.971434457e-18
-2.076552792e-18
-2.187014093e-18
-2.303086935e-18
-2.42505376e-18
-2.553211753e-18
-2.687873447e-18
-2.829367692e-18
-2.978040442e-18
-3.134255689e-18
-3.298396387e-18
-3.470865431e-18
-3.652086731e-18
-3.842506177e-18
-4.042592906e-18
-4.252840306e-18
-4.473767355e-18
-4.705919757e-18
-4.949871304e-18
-5.206225211e-18
-5.475615468e-18
-5.758708335e-18
-6.056203704e-18
-6.368836683e-18
-6.697379206e-18
-7.042641506e-18
-7.40547384e-18
-7.786768177e-18
-8.187459778e-18
-8.608529083e-18
-9.051003388e-18
-9.51595874e-18
-1.000452161e-17
-1.05178709e-17
-1.105723966e-17
-1.16239171e-17
-1.221925042e-17
-1.284464665e-17
-1.350157465e-17
-1.41915669e-17
-1.491622157e-17
-1.567720414e-17
-1.647624955e-17
-1.731516383e-17
-1.819582601e-17
-1.912018999e-17
-2.009028616e-17
-2.110822325e-17
-2.217618999e-17
-2.329645668e-17
-2.4471377e-17
-2.570338924e-17
-2.69950181e-17
-2.834887609e-17
-2.976766465e-17
-3.125417589e-17
-3.281129355e-17
-3.444199442e-17
-3.614934952e-17
-3.793652497e-17
-3.980678349e-17
-4.176348517e-17
-4.381008847e-17
-4.595015139e-17
-4.818733241e-17
-5.052539129e-17
-5.296819029e-17
-5.551969522e-17
-5.818397615e-17
-6.096520896e-17
-6.386767638e-17
-6.689576929e-17
-7.005398807e-17
-7.334694466e-17
-7.677936373e-17
-8.035608535e-17
-8.408206679e-17
-8.796238543e-17
-9.200224174e-17
-9.620696229e-17
-1.005820039e-16
-1.051329576e-16
-1.098655538e-16
-1.147856674e-16
-1.198993239e-16
-1.252127063e-16
-1.307321628e-16
-1.364642151e-16
-1.424155678e-16
-1.485931193e-16
-1.550039725e-16
-1.616554491e-16
-1.685551016e-16
-1.757107307e-16
-1.831304019e-16
-1.90822463e-16
-1.987955658e-16
-2.070586884e-16
-2.156211579e-16
-2.24492679e-16
-2.336833605e-16
-2.432037482e-16
-2.530648573e-16
-2.63278209e-16
-2.738558713e-16
-2.848104996e-16
-2.961553831e-16
-3.079044944e-16
-3.200725428e-16
-3.326750313e-16
-3.45728317e-16
-3.592496781e-16
-3.732573841e-16
-3.877707717e-16
-4.028103253e-16
-4.183977649e-16
-4.345561394e-16
-4.513099238e-16
-4.686851291e-16
-4.867094155e-16
-5.054122119e-16
-5.248248503e-16
-5.449807008e-16
-5.65915325e-16
-5.876666322e-16
-6.102750511e-16
-6.337837128e-16
-6.582386432e-16
-6.836889721e-16
-7.101871569e-16
-7.377892201e-16
-7.665550026e-16
-7.96548437e-16
-8.278378417e-16
-8.604962271e-16
-8.946016325e-16
-9.302374888e-16
-9.6749299e-16
-1.006463513e-15
-1.047251056e-15
-1.089964699e-15
-1.134721111e-15
-1.181645076e-15
-1.230870052e-15
-1.282538755e-15
-1.336803801e-15
-1.3938284e-15
-1.453787175e-15
-1.516867112e-15
-1.583267755e-15
-1.65320819e-15
-1.726775536e-15
-1.804370711e-15
-1.886349478e-15
-1.9731338e-15
-2.064721219e-15
-2.161419984e-15
-2.263575857e-15
-2.37156442e-15
-2.485790516e-15
-2.606689255e-15
-2.734727592e-15
-2.870405955e-15
-3.014263023e-15
-3.166883909e-15
-3.328931985e-15
-3.501681572e-15
-3.685270226e-15
-3.880424835e-15
-4.087960367e-15
-4.308522339e-15
-4.543091194e-15
-4.792863488e-15
-5.058943851e-15
-5.342507919e-15
-5.644826221e-15
-5.967269913e-15
-6.311318246e-15
-6.678567643e-15
-7.070741946e-15
-7.489703889e-15
-7.937467992e-15
-8.416214721e-15
-8.928306486e-15
-9.476305489e-15
-1.006299372e-14
-1.069139562e-14
-1.136480376e-14
-1.208680795e-14
-1.286132861e-14
-1.369265493e-14
-1.458548901e-14
-1.554499664e-14
-1.657686652e-14
-1.768737928e-14
-1.888348822e-14
-2.01729145e-14
-2.156425938e-14
-2.306713753e-14
-2.469233569e-14
-2.64520025e-14
-2.835987629e-14
-3.043155987e-14
-3.268485277e-14
-3.514015517e-14
-3.782096029e-14
-4.075445739e-14
-4.397227315e-14
-4.751138612e-14
-5.141526052e-14
-5.573525617e-14
-6.05323904e-14
-6.587954755e-14
-7.186426339e-14
-7.859224664e-14
-8.619185379e-14
-9.48197981e-14
-1.046684657e-13
-1.159753293e-13
-1.290351137e-13
-1.442155789e-13
-1.619780825e-13
-1.829044694e-13
-2.07732368e-13
-2.37401688e-13
-2.731160804e-13
-3.164244378e-13
-3.693292951e-13
-4.3443141e-13
-5.151231153e-13
-6.158475029e-13
-7.42446637e-13
-9.026303171e-13
-1.106608285e-12
-1.367944285e-12
-1.704711555e-12
-2.141058223e-12
-2.709330566e-12
-3.452955962e-12
-4.430361019e-12
-5.720300917e-12
-7.429113367e-12
-9.700598315e-12
-1.272948085e-11
-1.677976499e-11
-2.220976424e-11
-2.950624817e-11
-3.933103587e-11
-5.258458469e-11
-7.04927851e-11
-9.472543882e-11
-1.275579928e-10
-1.720923188e-10
-2.325580836e-10
-3.147240907e-10
-4.264596618e-10
-5.785006704e-10
-7.854946422e-10
-1.067426288e-09
-1.451561481e-09
-1.975097477e-09
-2.688774902e-09
-3.661798777e-09
-4.988540607e-09
-6.797662305e-09
-9.264531719e-09
-1.262810891e-08
-1.721390122e-08
-2.346515011e-08
-3.198517569e-08
-4.3594832e-08
-5.941040846e-08
-8.09491691e-08
-1.102722123e-07
-1.501776645e-07
-2.044616754e-07
-2.782706121e-07
-3.785757376e-07
-5.148121105e-07
-6.997372483e-07
-9.505832772e-07
-1.290600119e-06
-1.751118352e-06
-2.37430073e-06
-3.21680343e-06
-4.354634686e-06
-5.889583246e-06
-7.957695496e-06
-1.074041263e-05
-1.447914148e-05
-1.949422832e-05
-2.620953532e-05
-3.518408358e-05
-4.715251692e-05
-6.307644249e-05
-8.420900709e-05
-0.0001121751758
-0.0001490705883
-0.0001975812086
-0.0002611259324
-0.0003440229456
-0.0004516787095
-0.000590796094
-0.0007695921963
-0.0009980131847
-0.001287923592
-0.001653239967
-0.002109968535
-0.002676096998
-0.003371282973
-0.004216278488
-0.005232034669
-0.006438446678
-0.007852729702
-0.009487465132
-0.01134841856
-0.01343231278
-0.01572481085
-0.01819903011
-0.02081492127
-0.02351977405
-0.02624993817
-0.02893342613
-0.03149255067
-0.03384482106
-0.03589911296
-0.03754304073
-0.03861469738
-0.03885212922
-0.03781009704
-0.03473310515
-0.02836511725
-0.01665180198
0.003775156268
0.03853839945
0.0993383148
0.2003442002
0.3860155301
0.6673555095
1.081479154
1.611442763
2.547969238
3.778121526
5.278689179
6.914731097
8.398226385
9.340633161
9.398775471
8.240782977
5.96960398
3.295193455
0.7801974311
-0.5851174602
-1.572261066
-1.869049819
-1.738623827
-1.29647442
-0.9055067846
-0.5535663851
-0.2828290224
-0.02408096975
0.1233849232
0.2163933146
0.2633295278
0.2731070656
0.2573240408
0.2230876895
0.1892954953
0.1443570453
0.1043949653
0.06784085218
0.03742240793
0.01277223626
-0.007287049009
-0.02381023054
-0.03540443713
-0.03828108003
-0.03981283618
-0.04051185649
-0.03972560467
-0.03853444693
-0.03819115234
-0.03836673922
-0.03854167741
-0.03918493704
-0.03505857991
-0.03097414041
-0.02853093977
-0.02558071962
-0.0225088522
-0.01955464888
-0.01684131167
-0.01441797578
-0.01226275482
-0.01041108697
-0.008811567388
-0.007438118194
-0.006264415106
-0.005265397362
-0.004417975139
-0.003701297256
-0.003096793019
-0.002588095237
-0.002160907776
-0.001802811516
-0.001503101455
-0.00125259687
-0.001043460519
-0.0008690296693
-0.0007236608225
-0.00060258933
-0.0005018039289
-0.0004179360076
-0.0003481627466
-0.0002901230913
-0.0002418453422
-0.0002016851957
-0.000168272939
-0.0001404686706
-0.0001173244699
-9.80525435e-05
-8.19984808e-05
-6.861885316e-05
-5.746249125e-05
-4.81548642e-05
-4.038506655e-05
-3.389499152e-05
-2.847033258e-05
-2.393311153e-05
-2.0135478e-05
-1.695456729e-05
-1.428823742e-05
-1.205153614e-05
-1.017377353e-05
-8.596096531e-06
-7.269479263e-06
-6.153057856e-06
-5.212750378e-06
-4.420112861e-06
-3.751390723e-06
-3.186731961e-06
-2.70953425e-06
-2.305902939e-06
-1.964200875e-06
-1.674674313e-06
-1.429141878e-06
-1.220735808e-06
-1.043686548e-06
-8.931433324e-07
-7.65024641e-07
-6.558934705e-07
-5.62853235e-07
-4.834608232e-07
-4.156539338e-07
-3.576902992e-07
-3.080968183e-07
-2.6562695e-07
-2.292250004e-07
-1.979961658e-07
-1.711813847e-07
-1.481362126e-07
-1.2831306e-07
-1.112462496e-07
-9.653943369e-08
-8.385499155e-08
-7.290508868e-08
-6.344413094e-08
-5.526239155e-08
-4.818062405e-08
-4.204550543e-08
-3.672577829e-08
-3.210898248e-08
-2.809868358e-08
-2.461212108e-08
-2.157821116e-08
-1.893584932e-08
-1.663246632e-08
-1.462279918e-08
-1.286784389e-08
-1.13339622e-08
-9.992121812e-09
-8.817242724e-09
-7.787643315e-09
-6.884564327e-09
-6.091762033e-09
-5.39515952e-09
-4.782547739e-09
-4.243329187e-09
-3.768297726e-09
-3.349449459e-09
-2.979820139e-09
-2.653345227e-09
-2.364739354e-09
-2.109392484e-09
-1.883280385e-09
-1.682887301e-09
-1.505139263e-09
-1.347346342e-09
-1.207152746e-09
-1.082493644e-09
-9.715577686e-10
-8.727549537e-10
-7.846880602e-10
-7.061284851e-10
-6.359949891e-10
-5.733352261e-10
-5.173097319e-10
-4.671779455e-10
-4.222860017e-10
-3.820561473e-10
-3.459774788e-10
-3.135978404e-10
-2.845167604e-10
-2.583792814e-10
-2.348705197e-10
-2.137109817e-10
-1.94652322e-10
-1.7747377e-10
-1.619788949e-10
-1.479928164e-10
-1.353597118e-10
-1.239406505e-10
-1.136116995e-10
-1.042621559e-10
-9.579314693e-11
-8.811628733e-11
-8.115248771e-11
-7.483096171e-11
-6.908828855e-11
-6.386763645e-11
-5.911801133e-11
-5.479368172e-11
-5.085357607e-11
-4.72607972e-11
-4.398217382e-11
-4.098786808e-11
-3.825103281e-11
-3.574749157e-11
-3.345545646e-11
-3.135530068e-11
-2.942931768e-11
-2.766153308e-11
-2.603752047e-11
-2.454424779e-11
-2.316994911e-11
-2.190397384e-11
-2.073669614e-11
-1.965939781e-11
-1.866418579e-11
-1.774391124e-11
-1.689209333e-11
-1.610285045e-11
-1.537085195e-11
-1.469126156e-11
-1.405968051e-11
-1.347210763e-11
-1.29249142e-11
-1.241479992e-11
-1.193874906e-11
-1.149402452e-11
-1.107812785e-11
-1.068878956e-11
-1.032392997e-11
-9.981654824e-12
-9.660233474e-12
-9.358088081e-12
-9.073776407e-12
-8.805970358e-12
-8.553461993e-12
-8.315142966e-12
-8.089995173e-12
-7.87708309e-12
-7.67555284e-12
-7.48462129e-12
-7.303566328e-12
-7.131720202e-12
-6.968470397e-12
-6.813252273e-12
-6.665547105e-12
-6.524878955e-12
-6.390801029e-12
-6.262905103e-12
-6.140809902e-12
-6.024166882e-12
-5.912650503e-12
-5.805958804e-12
-5.70381353e-12
-5.605954985e-12
-5.512139825e-12
-5.422145182e-12
-5.33576015e-12
-5.252790154e-12
-5.173050858e-12
-5.096373944e-12
-5.022599734e-12
-4.951580658e-12
-4.883174712e-12
-4.817251839e-12
-4.753689267e-12
-4.692371541e-12
-4.633189452e-12
-4.576043986e-12
-4.520836579e-12
-4.467476559e-12
-4.415879443e-12
-4.365964097e-12
-4.31765342e-12
-4.270874712e-12
-4.225558796e-12
-4.181643243e-12
-4.139066106e-12
-4.097768713e-12
-4.057697582e-12
-4.018798029e-12
-3.981020701e-12
-3.94431801e-12
-3.908643895e-12
-3.873957048e-12
-3.840215408e-12
-3.807380085e-12
-3.775413175e-12
-3.744278747e-12
-3.713941924e-12
-3.684371288e-12
-3.655535584e-12
-3.627405177e-12
-3.59994903e-12
-3.5731424e-12
-3.546956995e-12
-3.521368808e-12
-3.496352801e-12
-3.471886953e-12
-3.447948804e-12
-3.424517521e-12
-3.401572315e-12
-3.379092925e-12
-3.357059982e-12
-3.335456184e-12
-3.314263197e-12
-3.293462953e-12
-3.27304094e-12
-3.252981614e-12
-3.233269263e-12
-3.213890778e-12
-3.19483063e-12
-3.17607599e-12
-3.15761476e-12
-3.139434065e-12
-3.121522532e-12
-3.103867954e-12
-3.086459008e-12
-3.069285151e-12
-3.05233543e-12
-3.035600627e-12
-3.019070902e-12
-3.002736951e-12
-2.986589069e-12
-2.970619377e-12
-2.954819566e-12
-2.939181428e-12
-2.923696151e-12
-2.908357154e-12
-2.893157543e-12
-2.878089709e-12
-2.863147091e-12
-2.84832295e-12
-2.833610853e-12
-2.819005322e-12
-2.8044992e-12
-2.790087297e-12
-2.775764548e-12
-2.761525782e-12
-2.747365552e-12
-2.733278878e-12
-2.719260402e-12
-2.705305783e-12
-2.691411207e-12
-2.677571771e-12
-2.663783088e-12
-2.650041475e-12
-2.636342266e-12
-2.622681236e-12
-2.609055652e-12
-2.595461747e-12
-2.581896077e-12
-2.568354821e-12
-2.554835399e-12
-2.541334623e-12
-2.527849278e-12
-2.514376454e-12
-2.500913395e-12
-2.487456862e-12
-2.474004295e-12
-2.46055379e-12
-2.447101526e-12
-2.433645932e-12
-2.420184704e-12
-2.406715244e-12
-2.393236555e-12
-2.379745113e-12
-2.366238752e-12
-2.352715993e-12
-2.339174994e-12
-2.325613699e-12
-2.312031175e-12
-2.298424916e-12
-2.284793839e-12
-2.271135249e-12
-2.257448219e-12
-2.243730854e-12
-2.229982375e-12
-2.216201196e-12
-2.202385612e-12
-2.188534682e-12
-2.174646539e-12
-2.16072003e-12
-2.146754153e-12
-2.132747889e-12
-2.118700235e-12
-2.104610321e-12
-2.090476634e-12
-2.076298446e-12
-2.062074992e-12
-2.047804945e-12
-2.0334878e-12
-2.019122153e-12
-2.004707581e-12
-1.990243267e-12
-1.975728548e-12
-1.961162696e-12
-1.946545057e-12
-1.931875196e-12
-1.917152366e-12
-1.902376027e-12
-1.887545522e-12
-1.872660283e-12
-1.857719502e-12
-1.842723385e-12
-1.827671895e-12
-1.812564159e-12
-1.79739994e-12
-1.78217849e-12
-1.766899558e-12
-1.751562908e-12
-1.736168707e-12
-1.720716622e-12
-1.705206326e-12
-1.689637653e-12
-1.674010295e-12
-1.658324029e-12
-1.642579068e-12
-1.626775266e-12
-1.610912824e-12
-1.59499164e-12
-1.579011378e-12
-1.562972245e-12
-1.546874137e-12
-1.530717695e-12
-1.514502565e-12
-1.498228899e-12
-1.481896931e-12
-1.465506809e-12
-1.449058587e-12
-1.432552715e-12
-1.415989433e-12
-1.399369045e-12
-1.382691756e-12
-1.365957742e-12
-1.349167623e-12
-1.332321696e-12
-1.315420486e-12
-1.298464347e-12
-1.281453541e-12
-1.264388763e-12
-1.247270259e-12
-1.230098812e-12
-1.21287456e-12
-1.195598358e-12
-1.178270547e-12
-1.160891921e-12
-1.143463309e-12
-1.125985085e-12
-1.108458076e-12
-1.09088292e-12
-1.073260346e-12
-1.055590892e-12
-1.037875601e-12
-1.020115283e-12
-1.002310514e-12
-9.844624047e-13
-9.665714589e-13
-9.486386309e-13
-9.306648227e-13
-9.12651291e-13
-8.945990097e-13
-8.765088368e-13
-8.583816005e-13
-8.402186203e-13
-8.220208073e-13
-8.037892767e-13
-7.855250074e-13
-7.672291887e-13
-7.489028881e-13
-7.305472389e-13
-7.121635038e-13
-6.937529362e-13
-6.753167748e-13
-6.568560022e-13
-6.383721759e-13
-6.198665715e-13
-6.013406516e-13
-5.827958167e-13
-5.642332184e-13
-5.456540849e-13
-5.270599299e-13
-5.084521524e-13
-4.898325619e-13
-4.712025023e-13
-4.525632856e-13
-4.339164872e-13
-4.152638236e-13
-3.966067068e-13
-3.779466694e-13
-3.592853204e-13
-3.406242813e-13
-3.21965249e-13
-3.033099392e-13
-2.846598933e-13
-2.660168767e-13
-2.473828526e-13
-2.28759264e-13
-2.101480446e-13
-1.915509273e-13
-1.729697669e-13
-1.544061864e-13
-1.358620334e-13
-1.173392898e-13
-9.88397916e-14
-8.036540317e-14
-6.191799357e-14
-4.349950828e-14
-2.511179867e-14
-6.75660689e-15
1.156397074e-14
2.984789843e-14
4.809325637e-14
6.629805629e-14
8.44603548e-14
1.025780374e-13
1.206491339e-13
1.386717482e-13
1.566438233e-13
1.745633372e-13
1.924282791e-13
2.102366497e-13
2.279863468e-13
2.456752937e-13
2.633012484e-13
2.808620369e-13
2.98355465e-13
3.157799966e-13
3.331319361e-13
3.504092818e-13
3.676095637e-13
3.847297135e-13
4.017665119e-13
4.187165452e-13
4.355757974e-13
4.523399578e-13
4.690038844e-13
4.855616027e-13
5.020063429e-13
5.183302932e-13
5.345246055e-13
5.505789264e-13
5.664817902e-13
5.822192047e-13
5.977760271e-13
6.131314209e-13
6.282688876e-13
6.43132667e-13
6.577601183e-13
6.71916243e-13
6.85771733e-13
6.990109415e-13
7.113641015e-13
7.225708132e-13
7.331298978e-13
8.181804334e-13
1.007914495e-12
1.149005101e-12
1.266188128e-12
1.359415563e-12
1.429598202e-12
1.477905641e-12
1.505554949e-12
1.513846501e-12
1.504137075e-12
1.477821015e-12
1.436318275e-12
1.381064906e-12
1.313496936e-12
1.235042846e-12
1.147112642e-12
1.05109076e-12
9.483279824e-13
8.401343534e-13
7.277743402e-13
6.124616361e-13
4.95354966e-13
3.775544457e-13
2.600988876e-13
1.439626474e-13
3.005446024e-14
-8.078508971e-14
-1.877845203e-13
-2.902428055e-13
-3.875301468e-13
-4.790888591e-13
-5.644337574e-13
-6.431526987e-13
-7.149066837e-13
-7.794300361e-13
-8.365302117e-13
-8.860874683e-13
-9.280542605e-13
-9.624543063e-13
-9.893812715e-13
-1.008996951e-12
-1.02152892e-12
-1.027267563e-12
-1.026562311e-12
-1.019817191e-12
-1.007485521e-12
-9.900636287e-13
-9.680838836e-13
-9.421068295e-13
-9.127125138e-13
-8.804914693e-13
-8.460350131e-13
-8.099254573e-13
-7.72726458e-13
-7.349734711e-13
-6.971650762e-13
-6.597549567e-13
-6.231452466e-13
-5.876811296e-13
-5.536470941e-13
-5.212648822e-13
-4.906932471e-13
-4.620294503e-13
-4.353124857e-13
-4.10527703e-13
-3.8761294e-13
-3.664655092e-13
-3.469500371e-13
-3.289066704e-13
-3.121593724e-13
-2.965240218e-13
-2.818159941e-13
-2.678569916e-13
-2.544809584e-13
-2.415389139e-13
-2.289026424e-13
-2.164671973e-13
-2.041522998e-13
-1.91902591e-13
-1.796870066e-13
-1.674972181e-13
-1.553454933e-13
-1.432619024e-13
-1.312912894e-13
-1.194899209e-13
-1.079221019e-13
-9.665683501e-14
-8.576464842e-14
-7.531464537e-14
-6.537189846e-14
-5.599519251e-14
-4.723518737e-14
-3.913298459e-14
-3.171914638e-14
-2.501309673e-14
-1.902294618e-14
-1.374566396e-14
-9.167584765e-15
-5.265198718e-15
-2.006173633e-15
6.49433927e-16
2.747836935e-15
4.34009305e-15
5.480648454e-15
6.225896611e-15
6.632792181e-15
6.757560764e-15
6.654531439e-15
6.375121163e-15
5.966982708e-15
5.473335245e-15
4.932471586e-15
4.377449825e-15
3.835954894e-15
3.330319443e-15
2.877690247e-15
2.490314115e-15
2.175928754e-15
1.938229896e-15
1.777394984e-15
1.690638924e-15
1.672781e-15
1.716805603e-15
1.814396328e-15
1.956432757e-15
2.133437195e-15
2.335963178e-15
2.554923499e-15
2.781851163e-15
3.009098343e-15
3.229973264e-15
3.438821096e-15
3.631054075e-15
3.803138681e-15
3.952546768e-15
4.07767944e-15
4.177769139e-15
4.25277055e-15
4.303243021e-15
4.330232133e-15
4.335155244e-15
4.31969387e-15
4.285693862e-15
4.235080053e-15
4.169780758e-15
4.091665466e-15
4.002497677e-15
3.903894828e-15
3.797304226e-15
3.683986119e-15
3.565007767e-15
3.441243651e-15
3.313384491e-15
3.18195104e-15
3.047312247e-15
2.909708596e-15
2.769277538e-15
2.626081092e-15
2.480134116e-15
2.331433558e-15
2.179985463e-15
2.025830764e-15
1.869069589e-15
1.709879274e-15
1.548530834e-15
1.385399696e-15
1.220970522e-15
1.055838171e-15
8.907027657e-16
7.263597817e-16
5.63685749e-16
4.036211561e-16
2.471492086e-16
9.527324889e-17
-5.100545173e-17
-1.907130069e-16
-3.229233384e-16
-4.467793345e-16
-5.615111232e-16
-6.664502459e-16
-7.610421339e-16
-8.448541775e-16
-9.175806591e-16
-9.79045658e-16
-1.029201549e-15
-1.068128208e-15
-1.096026805e-15
-1.113216369e-15
-1.120127082e-15
-1.117294554e-15
-1.105352871e-15
-1.085029698e-15
-1.057138711e-15
-1.022574417e-15
-9.82305956e-16
-9.373697612e-16
-8.888616149e-16
-8.379283515e-16
-7.857574157e-16
-7.335650056e-16
-6.825812912e-16
-6.340361347e-16
-5.891412015e-16
-5.490711634e-16
-5.149439409e-16
-4.878003074e-16
-4.685830634e-16
-4.581175069e-16
-4.570923484e-16
-4.660425079e-16
-4.853349868e-16
-5.151571746e-16
-5.555087972e-16
-6.061974914e-16
-6.668389504e-16
-7.368604435e-16
-8.155093438e-16
-9.018640473e-16
-9.948506917e-16
-1.093261135e-15
-1.195774582e-15
-1.300981166e-15
-1.40740727e-15
-1.513541453e-15
-1.617860753e-15
-1.718856705e-15
-1.815060331e-15
-1.905065948e-15
-1.987551667e-15
-2.061298645e-15
-2.125206787e-15
-2.178306174e-15
-2.219766344e-15
-2.248900508e-15
-2.265166986e-15
-2.268166838e-15
-2.257640732e-15
-2.233461813e-15
-2.195630228e-15
-2.144266687e-15
-2.079606787e-15
-2.001993059e-15
-1.91186593e-15
-1.809747117e-15
-1.696214096e-15
-1.571867375e-15
-1.437293098e-15
-1.293006746e-15
-1.139594453e-15
-9.776875454e-16
)
;

boundaryField
{
    inlet
    {
        type            calculated;
        value           uniform 0;
    }
    outlet
    {
        type            calculated;
        value           uniform -9.037686143e-16;
    }
    wall
    {
        type            empty;
    }
}


// ************************************************************************* //
