/*--------------------------------*- C++ -*----------------------------------*\
  =========                 |
  \\      /  F ield         | OpenFOAM: The Open Source CFD Toolbox
   \\    /   O peration     | Website:  https://openfoam.org
    \\  /    A nd           | Version:  7
     \\/     M anipulation  |
\*---------------------------------------------------------------------------*/
FoamFile
{
    version     2.0;
    format      ascii;
    class       volScalarField;
    location    "0.000558243009";
    object      ddt0(thermo:psi,p);
}
// * * * * * * * * * * * * * * * * * * * * * * * * * * * * * * * * * * * * * //

dimensions      [1 -3 -1 0 0 0 0];

internalField   nonuniform List<scalar> 
1500
(
-523.0572175
-2130.357393
-3372.542676
-3470.452795
-2667.970179
-1635.779962
-828.3501183
-357.8511413
-145.826931
-81.97661791
-86.06169337
-115.8742571
-151.7826285
-186.1633593
-215.8911299
-239.7638949
-257.2682141
-268.1943165
-272.5230898
-270.3740494
-261.9840334
-247.6937413
-227.9353841
-203.2203549
-174.1267902
-141.2875598
-105.3793104
-67.1130112
-27.22607603
13.52428923
54.36719597
94.5245624
133.2189154
169.6833234
203.1738886
232.9848875
258.4662283
279.0422347
294.2307826
303.6613318
307.090401
304.4131381
295.6699057
281.0471723
260.8724578
235.6035592
205.8127202
172.1667595
135.4044338
96.3123874
55.70104038
14.38159208
-26.85492154
-67.25584439
-106.1220428
-142.8198867
-176.7902021
-207.5544677
-234.7186067
-257.9747175
-277.1010256
-291.9602662
-302.4966244
-308.7312585
-310.7564281
-308.7282316
-302.8580258
-293.4026839
-280.6539731
-264.9274504
-246.5513759
-225.8562018
-203.1652033
-178.7867802
-153.0088362
-126.0954925
-98.28621413
-69.79722118
-40.824877
-11.55060802
17.85322244
47.21707841
76.36826854
105.1257592
133.2962278
160.6716716
187.0287559
212.1299438
235.7263196
257.5619132
277.3792461
294.9257593
309.9607653
322.2625255
331.635099
337.9146
340.9745693
340.7301975
337.1412176
330.2133558
319.9983038
306.5922749
290.1332741
270.7972937
248.7936988
224.3601006
197.7570292
169.2627025
139.1681288
107.7727389
75.38064718
42.29756267
8.828288307
-24.72531327
-58.06606113
-90.90309534
-122.9535855
-153.9446593
-183.6156367
-211.7205812
-238.0311227
-262.339429
-284.4611663
-304.2382528
-321.5412092
-336.2709441
-348.359836
-357.7720541
-364.5031158
-368.5787446
-370.053155
-369.0069196
-365.544605
-359.7923468
-351.8955094
-342.0165354
-330.3330206
-317.0359883
-302.3282814
-286.422922
-269.5412671
-251.9107751
-233.7622018
-215.3260947
-196.8285255
-178.4860612
-160.5000909
-143.0507267
-126.290568
-110.3387063
-95.2754093
-81.13791307
-67.91775621
-55.56001985
-43.96473975
-32.99064056
-22.46118391
-12.17276237
-1.904709433
8.569359489
19.46948306
30.99726684
43.32451521
56.5833179
70.8582672
86.18135342
102.5299391
119.8279849
137.9504866
156.7308423
175.9706198
195.4510241
214.945189
234.230358
253.0989909
271.3679316
288.8849228
305.5320021
321.2255664
335.9132444
349.5679822
362.1800467
373.7478256
384.2684281
393.7290876
402.1002748
409.3312249
415.3483267
420.0565193
423.3435367
425.0865825
425.1608071
423.4488464
419.8506595
414.2929345
406.7374507
397.187905
385.6948235
372.3582865
357.3282187
340.8020193
323.0192878
304.2534142
284.799889
264.9613768
245.0299336
225.2672203
205.8841457
187.0219944
168.7376221
150.9956397
133.6704716
116.5606806
99.41690716
81.98317471
64.0492501
45.50944328
26.42090064
7.052515991
-12.08556782
-30.24192597
-46.46192745
-59.66949837
-68.79355071
-72.9340657
-71.55604089
-64.69255372
-53.13203274
-38.56038738
-23.62691593
-11.90469712
-7.722044031
-15.85166614
-41.05822357
-87.52197082
-158.1750102
-254.0053004
-373.3999968
-511.6117561
-660.4369195
-808.1912362
-940.0565007
-1038.846755
-1086.215931
-1064.267553
-957.5463242
-755.140705
-453.2259289
-56.07808376
422.1245855
701.8895865
737.3573877
772.7079853
807.9487118
843.1990801
878.5168391
913.8968611
949.3469328
984.8563696
1020.418138
1056.020243
1091.649746
1127.292771
1162.935067
1198.562218
1234.15972
1269.712966
1305.207215
1340.627553
1375.958867
1411.185827
1446.292881
1481.26425
1516.083935
1550.73572
1585.203173
1619.469653
1653.518313
1687.3321
1720.893763
1754.185853
1787.190729
1819.890556
1852.267316
1884.302808
1915.978651
1947.276288
1978.176995
2008.661879
2038.711887
2068.307806
2097.430275
2126.059782
2154.176674
2181.761161
2208.79332
2235.253101
2261.120335
2286.374735
2310.995906
2334.96335
2358.256471
2380.854581
2402.73691
2423.882608
2444.270754
2463.880364
2482.690396
2500.679755
2517.82731
2534.111887
2549.512288
2564.007296
2577.575679
2590.196202
2601.847634
2612.508756
2622.158368
2630.775304
2638.33843
2644.826664
2650.218974
2654.494399
2657.632046
2659.61111
2660.410876
2660.010732
2658.390178
2655.528838
2651.406465
2646.002954
2639.298355
2631.272879
2621.906909
2611.181012
2599.075951
2585.572692
2570.652417
2554.296535
2536.486694
2517.204787
2496.432973
2474.153678
2450.349612
2425.003782
2398.099498
2369.62039
2339.550417
2307.87388
2274.575432
2239.640091
2203.053255
2164.800709
2124.868641
2083.243653
2039.912771
1994.863463
1948.083644
1899.561694
1849.286469
1797.247311
1743.434066
1687.83709
1630.447264
1571.25601
1510.255297
1447.43766
1382.796207
1316.324635
1248.017242
1177.868939
1105.875261
1032.032383
956.337129
878.786985
799.3801134
718.1153626
634.9922807
550.0111276
463.1728868
374.4792762
283.9327627
191.5365714
97.29469962
1.211926267
-96.70617527
-196.4532259
-298.0220296
-401.4045616
-506.5919586
-613.5745064
-722.3416308
-832.8818854
-945.1829421
-1059.231581
-1175.013679
-1292.5142
-1411.717189
-1532.605755
-1655.162068
-1779.367349
-1905.201856
-2032.644883
-2161.674745
-2292.268773
-2424.403307
-2558.053686
-2693.194238
-2829.798279
-2967.838103
-3107.284974
-3248.109121
-3390.279733
-3533.764952
-3678.531866
-3824.546508
-3971.773847
-4120.177788
-4269.721163
-4420.365731
-4572.072173
-4724.800091
-4878.508002
-5033.15334
-5188.692453
-5345.080596
-5502.271941
-5660.219568
-5818.875467
-5978.190542
-6138.114607
-6298.59639
-6459.583534
-6621.022602
-6782.859076
-6945.037362
-7107.500797
-7270.191649
-7433.051123
-7596.019369
-7759.035487
-7922.037533
-8084.962526
-8247.746457
-8410.3243
-8572.630015
-8734.596563
-8896.155916
-9057.239065
-9217.776035
-9377.695896
-9536.926778
-9695.395882
-9853.029495
-10009.75301
-10165.49093
-10320.16691
-10473.70374
-10626.02339
-10777.04702
-10926.695
-11074.88692
-11221.54164
-11366.5773
-11509.9113
-11651.46041
-11791.14073
-11928.86771
-12064.55623
-12198.12059
-12329.47455
-12458.53135
-12585.20374
-12709.40404
-12831.04414
-12950.03555
-13066.28941
-13179.71657
-13290.2276
-13397.73282
-13502.14236
-13603.36617
-13701.31411
-13795.89595
-13887.02141
-13974.60026
-14058.54229
-14138.75742
-14215.15572
-14287.64745
-14356.14314
-14420.55362
-14480.7901
-14536.76418
-14588.38794
-14635.57401
-14678.23559
-14716.28654
-14749.64144
-14778.21564
-14801.92534
-14820.68765
-14834.42066
-14843.0435
-14846.4764
-14844.64078
-14837.45933
-14824.85605
-14806.75641
-14783.08721
-14753.77854
-14718.75847
-14677.95665
-14598.73784
-14515.52976
-14452.46358
-14450.37884
-14427.96238
-14384.89086
-14320.81588
-14235.30429
-14127.96487
-13998.38405
-13846.12833
-13670.76072
-13471.87899
-13248.95266
-13009.53256
-12857.47914
-12700.13055
-12538.05495
-12371.88622
-12178.54539
-11962.36369
-11738.63959
-11507.28786
-11268.22545
-11021.37191
-10766.65038
-10503.98697
-10233.31087
-9954.554369
-9667.652974
-9372.545439
-9069.173851
-8757.48367
-8437.423782
-8108.946529
-7772.007753
-7426.566828
-7072.586696
-6710.033905
-6338.878646
-5959.094791
-5570.659934
-5173.555432
-4767.766443
-4353.281963
-3930.094874
-3498.201981
-3057.604049
-2608.305848
-2150.316187
-1683.647961
-1208.318184
-724.3480295
-231.7628682
269.407699
779.1298001
1297.365263
1824.071577
2359.201867
2902.704863
3454.524867
4014.601736
4582.870857
5159.263121
5743.704915
6336.118104
6936.420023
7544.523473
8160.336718
8783.763495
9414.703021
10053.05002
10698.69472
11351.52293
12011.41606
12678.25116
13351.90101
14032.23417
14719.11511
15412.40427
16111.95821
16817.62977
17529.26819
18246.71933
18969.82587
19698.42758
20432.36156
21171.4626
21915.5635
22664.49549
23418.0887
24176.17264
24938.57681
25705.13132
26475.66764
27250.01941
28028.02336
28809.52035
29594.35649
30382.38445
31173.46492
31967.46816
32764.27587
33563.78316
34365.9008
35170.55771
35977.70374
36787.31279
37599.38625
38413.95682
39231.09275
40050.90258
40873.54035
41699.2114
42528.17873
43360.77003
44197.38546
45038.50617
45884.70358
46736.64965
47595.12791
48461.04561
49335.44667
50219.52579
51114.64336
52022.34147
52944.36059
53882.65708
54839.42116
55817.09497
56818.39058
57846.30708
58904.14632
59995.52612
61124.39003
62295.01197
63511.99404
64780.25529
66105.00873
67491.72341
68946.06791
70473.83087
72080.81372
73772.6904
75554.57742
77431.77664
79408.09726
81486.4337
83668.1554
85952.65623
88337.07531
90814.85271
93376.3916
96007.61324
98689.53905
101397.7039
104101.6659
106764.658
109343.4458
111788.4547
114044.2262
116050.2545
117742.2312
119053.693
119918.0824
120271.04
120052.9466
119211.4696
117703.9741
115499.6612
112581.0138
108945.0123
104603.3087
99581.87101
93919.87505
87668.38166
80888.11691
73647.95345
66023.21826
58094.81955
49948.57502
41673.07571
33353.96857
25062.03321
16405.776
7934.801107
-3122.036426
-12240.21863
-18718.3407
-16303.89332
-27633.10575
-36129.93645
-43249.87911
-49695.99641
-55781.95561
-61496.442
-67473.76342
-73576.34637
-79746.44231
-84775.54424
-93370.74839
-79568.87583
-87490.39708
-94643.31061
-100787.3021
-93954.873
-98122.83414
-101699.6232
-104357.613
-93415.76639
-93775.47341
-92807.82994
-90651.30609
-87533.84162
-83639.72576
-79097.2152
-71265.33867
-66239.28382
-60681.59013
-55999.15215
-51765.46368
-47978.59217
-44605.48539
-41560.16568
-38461.02471
-34335.61658
-30587.42848
-27124.90568
-23842.86927
-20935.28646
-18735.65036
-17214.64392
-16262.37853
-15676.67691
-13891.0646
-12303.56403
-11584.1358
-10762.07759
-9906.2319
-9079.248197
-8315.005769
-7625.767939
-6987.412596
-6438.256012
-5945.93238
-5501.043892
-5096.472249
-4725.852793
-4383.925473
-4066.432326
-3769.96225
-3491.789991
-3229.75907
-2982.070986
-2747.262599
-2524.120123
-2311.617007
-2108.890062
-1915.121808
-1729.651971
-1551.872809
-1381.22177
-1217.202492
-1059.357563
-907.2679797
-760.5492966
-618.8480683
-481.8388459
-349.2215845
-220.7193681
-96.07638579
24.94388362
142.5603064
256.9755732
368.377537
476.9404234
582.825927
686.1842039
787.1547685
885.8673059
982.4424076
1076.992239
1169.621143
1260.426195
1349.4977
1436.919653
1522.770161
1607.121824
1690.042095
1771.593601
1851.834449
1930.818507
2008.59566
2085.212058
2160.710336
2235.129831
2308.506774
2380.874481
2452.263519
2522.701877
2592.215115
2660.826511
2728.557193
2795.426273
2861.450967
2926.646705
2991.027246
3054.604776
3117.390005
3179.392262
3240.619576
3301.078763
3360.775504
3419.714412
3477.89911
3535.332291
3592.015784
3647.950608
3703.137034
3757.574635
3811.262336
3864.198459
3916.380775
3967.806538
4018.472528
4068.375094
4117.510182
4165.87337
4213.482086
4260.287508
4306.310383
4351.536281
4395.963946
4439.587009
4482.399474
4524.39501
4565.56715
4605.909313
4645.414826
4684.076916
4721.888767
4758.843504
4794.934221
4830.153986
4864.495862
4897.952914
4930.51822
4962.184883
4992.946044
5022.794885
5051.724644
5079.728617
5106.800175
5132.932762
5158.119906
5182.355229
5205.632446
5227.945378
5249.287951
5269.654206
5289.038302
5307.434521
5324.837269
5341.241088
5356.640648
5371.030762
5384.406381
5396.762602
5408.094668
5418.39797
5427.668052
5435.900612
5443.091503
5449.236735
5454.33248
5458.375067
5461.36099
5463.286905
5464.149631
5463.946154
5462.673625
5460.329362
5456.910851
5452.415743
5446.841859
5440.187188
5432.449886
5423.628278
5413.720857
5402.726284
5390.643389
5377.471167
5363.208783
5347.855565
5331.411011
5313.874782
5295.246704
5275.526769
5254.71513
5232.812104
5209.818169
5185.733965
5160.56029
5134.298103
5106.948519
5078.51281
5048.992404
5018.388884
4986.703985
4953.939596
4920.097755
4885.180651
4849.19062
4812.130146
4774.001859
4734.808533
4694.553086
4653.238575
4610.868202
4567.445303
4522.973356
4477.455973
4430.896901
4383.30002
4334.669344
4285.009016
4234.323308
4182.616622
4129.893485
4076.158548
4021.416588
3965.672501
3908.931308
3851.198147
3792.478273
3732.77706
3672.099997
3610.452686
3547.840841
3484.27029
3419.746968
3354.27692
3287.8663
3220.521364
3152.248476
3083.054102
3012.944812
2941.927274
2870.008258
2797.194631
2723.49336
2648.911504
2573.456219
2497.134757
2419.954458
2341.922757
2263.047178
2183.335333
2102.794925
2021.433742
1939.259658
1856.280632
1772.504708
1687.940012
1602.594751
1516.477215
1429.595772
1341.95887
1253.575034
1164.452868
1074.60105
984.0283347
892.7435503
800.7555988
708.0734551
614.7061656
520.6628477
425.9526891
330.5849467
234.5689459
137.9140799
40.62980899
-57.27434048
-155.7887767
-254.903843
-354.6098189
-454.8969203
-555.755301
-657.1750525
-759.1462053
-861.6587297
-964.7025357
-1068.267474
-1172.343339
-1276.919863
-1381.986725
-1487.533546
-1593.549891
-1700.025271
-1806.94914
-1914.3109
-2022.099899
-2130.305433
-2238.916745
-2347.923026
-2457.313418
-2567.077011
-2677.202847
-2787.679917
-2898.497166
-3009.643489
-3121.107737
-3232.87871
-3344.945167
-3457.295818
-3569.919332
-3682.80433
-3795.939394
-3909.31306
-4022.913825
-4136.730143
-4250.750429
-4364.963057
-4479.356361
-4593.91864
-4708.638153
-4823.503123
-4938.501736
-5053.622143
-5168.852463
-5284.180778
-5399.595139
-5515.083564
-5630.634042
-5746.234528
-5861.872952
-5977.537212
-6093.215181
-6208.894704
-6324.5636
-6440.209666
-6555.820672
-6671.384369
-6786.888483
-6902.320723
-7017.668777
-7132.920312
-7248.083376
-7363.104387
-7477.991799
-7592.733219
-7707.320431
-7821.732564
-7935.961647
-8049.994895
-8163.820055
-8277.424673
-8390.796308
-8503.922511
-8616.790834
-8729.388828
-8841.704045
-8953.724043
-9065.436385
-9176.828641
-9287.88839
-9398.603222
-9508.960739
-9618.948558
-9728.554312
-9837.765651
-9946.570246
-10054.95579
-10162.91
-10270.42061
-10377.47541
-10484.06218
-10590.16877
-10695.78304
-10800.89289
-10905.48627
-11009.55116
-11113.07559
-11216.04764
-11318.45542
-11420.28712
-11521.53096
-11622.17521
-11722.20823
-11821.61842
-11920.39423
-12018.52421
-12115.99696
-12212.80115
-12308.92553
-12404.35893
-12499.09024
-12593.10847
-12686.40269
-12778.96206
-12870.77585
-12961.8334
-13052.12417
-13141.63771
-13230.36368
-13318.29185
-13405.41209
-13491.71439
-13577.18886
-13661.82574
-13745.61537
-13828.54823
-13910.61495
-13991.80627
-14072.11306
-14151.52637
-14230.03735
-14307.63733
-14384.31778
-14460.07032
-14534.88674
-14608.75898
-14681.67916
-14753.63956
-14824.63264
-14894.65102
-14963.68752
-15031.73514
-15098.78705
-15164.83664
-15229.87748
-15293.90333
-15356.90816
-15418.88614
-15479.83168
-15539.73935
-15598.60397
-15656.42058
-15713.18444
-15768.89103
-15823.53606
-15877.11548
-15929.62548
-15981.06249
-16031.42317
-16080.70444
-16128.90348
-16176.0177
-16222.04478
-16266.98267
-16310.82957
-16353.58395
-16395.24454
-16435.81036
-16475.2807
-16513.65512
-16550.93346
-16587.11586
-16622.20273
-16656.19477
-16689.09298
-16720.89864
-16751.61333
-16781.23893
-16809.77763
-16837.23188
-16863.60449
-16888.89852
-16913.11738
-16936.26475
-16958.34464
-16979.36137
-16999.31956
-17018.22413
-17036.08034
-17052.89375
-17068.67021
-17083.4159
-17097.13732
-17109.84126
-17121.53483
-17132.22545
-17141.92085
-17150.62905
-17158.3584
-17165.11752
-17170.91537
-17175.76119
-17179.66449
-17182.63512
-17184.68318
-17185.81909
-17186.05351
-17185.39742
-17183.86206
-17181.45891
-17178.19977
-17174.09664
-17169.16184
-17163.40788
-17156.84755
-17149.4939
-17141.36018
-17132.45992
-17122.80689
-17112.41508
-17101.29877
-17089.4725
-17076.95109
-17063.72873
-17049.86227
-17035.34699
-17020.19902
-17004.43483
-16988.07122
-16971.12098
-16953.60968
-16935.55007
-16916.95864
-16897.85023
-16878.2379
-16858.13041
-16837.53012
-16816.43301
-16794.81593
-16772.65017
-16749.85158
-16726.38576
-16701.90781
-16676.96054
-16649.01737
-16622.78001
-16590.314
-16556.39134
-16522.33382
-16485.12949
-16415.38077
-15367.38703
-12347.08225
-9516.346125
-6842.995339
-4342.467255
-2026.995536
95.79254076
2019.910115
3741.456186
5258.766108
6572.249009
7684.330405
8599.334775
9323.353293
9864.093474
10230.71471
10433.65229
10484.43314
10395.48629
10179.95094
9851.484573
9424.073993
8911.851165
8328.916613
7689.171705
7006.16211
6292.933632
5561.901858
4824.736544
4092.261798
3374.37242
2679.966862
2016.89705
1391.934739
810.7543526
277.9315724
-203.042932
-629.7354615
-1000.72802
-1315.565178
-1574.690178
-1779.371798
-1931.623527
-2034.116591
-2090.088433
-2103.248302
-2077.681513
-2017.753971
-1928.018438
-1813.123979
-1677.729846
-1526.425041
-1363.654517
-1193.652959
-1020.386838
-847.5052212
-678.2998051
-515.6742238
-362.1227369
-219.7180842
-90.1081355
25.47903926
126.2223926
211.6881342
281.8037683
336.8268774
377.3096385
404.0600495
418.1009215
420.627608
412.9654911
396.5281415
372.7770215
343.1835127
309.1939577
272.1982796
233.502661
194.3065954
155.6845327
118.5722218
83.75769865
51.87678373
23.41285543
-1.299456301
-22.0670597
-38.828162
-51.63951562
-60.66171199
-66.14308992
-68.40281719
-67.81369471
-64.78518998
-59.74716598
-53.1347134
-45.37442702
-36.872399
-28.00412874
-19.10647056
-10.4716698
-2.343467516
5.084807644
11.67029942
17.31902375
21.98282989
25.65517498
28.36597814
30.1758269
31.169806
31.45120452
31.13533574
30.34367868
29.19851603
27.81820721
26.31319927
24.78283719
23.3130008
21.97455996
20.82260875
19.89641389
19.21999174
18.80321214
18.64331904
18.72675281
19.03116075
19.52748948
20.18205953
20.95853926
21.81974742
22.72923203
23.65258821
24.55849572
25.41947149
26.21234621
26.91848482
27.52378109
28.01846132
28.39673685
28.65634623
28.79802665
28.82495187
28.74216921
28.55606286
28.27386471
27.90322872
27.45187673
26.92732063
26.33665859
25.68644186
24.98260273
24.2304355
23.43461839
22.59926747
21.72801085
20.82407577
19.89037992
18.92962235
17.94436928
16.93713167
15.91043411
14.86687386
13.80916988
12.74020342
11.66304899
10.58099799
9.497572932
8.416534287
7.341877291
6.277820308
5.228781836
4.199347319
3.194224905
2.218189971
1.276019749
0.372418962
-0.4880616741
-1.301111465
-2.062747956
-2.769403404
-3.418007731
-4.006063831
-4.531712916
-4.993787776
-5.391852719
-5.726227222
-5.997996541
-6.209005419
-6.361839149
-6.459791413
-6.50682091
-6.507499411
-6.46695163
-6.390789737
-6.285043807
-6.156088264
-6.010566777
-5.855314599
-5.697279577
-5.543441002
-5.400726185
-5.275925571
-5.175604936
-5.106015867
-5.073004783
-5.081920581
-5.137524174
-5.243898662
-5.404364605
-5.621401703
-5.896578578
-6.230494422
-6.622733737
-7.071836975
-7.575288214
-8.129522294
-8.729950935
-9.371008842
-10.04621976
-10.74828065
-11.46916331
-12.20023088
-12.9323671
-13.6561152
-14.36182393
-15.03979673
-15.68044094
-16.27441415
-16.8127636
-17.28705631
-17.68949661
-18.013029
-18.25142374
-18.39934506
-18.45240006
-18.40717
-18.26122427
-18.01311922
-17.66238429
-17.20949627
-16.65584359
-16.00367754
-15.25604815
-14.41671724
-13.49004253
-12.48082314
-11.39409501
-10.23483538
-9.007500897
-7.714696779
-6.355571744
-4.917748921
)
;

boundaryField
{
    inlet
    {
        type            calculated;
        value           uniform 374.6242083;
    }
    outlet
    {
        type            calculated;
        value           uniform -4.029037882;
    }
    wall
    {
        type            empty;
    }
}


// ************************************************************************* //
