/*--------------------------------*- C++ -*----------------------------------*\
  =========                 |
  \\      /  F ield         | OpenFOAM: The Open Source CFD Toolbox
   \\    /   O peration     | Website:  https://openfoam.org
    \\  /    A nd           | Version:  7
     \\/     M anipulation  |
\*---------------------------------------------------------------------------*/
FoamFile
{
    version     2.0;
    format      ascii;
    class       volScalarField;
    location    "0.000558243009";
    object      ddt0(rho,C2H5CHO);
}
// * * * * * * * * * * * * * * * * * * * * * * * * * * * * * * * * * * * * * //

dimensions      [1 -3 -1 0 0 0 0];

internalField   nonuniform List<scalar> 
1500
(
-8.736650682e-11
-2.647744051e-10
-4.000946135e-10
-4.06913567e-10
-3.133539907e-10
-1.947079345e-10
-1.015769564e-10
-4.575918871e-11
-1.827430836e-11
-6.811538104e-12
-2.77308732e-12
-1.683277818e-12
-1.604639505e-12
-1.813847644e-12
-2.066232526e-12
-2.286168719e-12
-2.451214208e-12
-2.554932073e-12
-2.596094215e-12
-2.575608004e-12
-2.495681413e-12
-2.359550489e-12
-2.171330718e-12
-1.93589336e-12
-1.658745733e-12
-1.345916599e-12
-1.003851741e-12
-6.39323915e-13
-2.593577774e-13
1.288334595e-13
5.179062579e-13
9.00448543e-13
1.269054045e-12
1.616416913e-12
1.935450717e-12
2.219432675e-12
2.462169968e-12
2.658178652e-12
2.802865971e-12
2.892702141e-12
2.925367729e-12
2.899863906e-12
2.816575178e-12
2.677277848e-12
2.4850919e-12
2.244378356e-12
1.960588439e-12
1.640074324e-12
1.289873471e-12
9.174795068e-13
5.306125681e-13
1.370001963e-13
-2.558221277e-13
-6.406845552e-13
-1.010927071e-12
-1.360513668e-12
-1.684117608e-12
-1.977180464e-12
-2.235948226e-12
-2.457487796e-12
-2.639686535e-12
-2.78123685e-12
-2.881607048e-12
-2.940998668e-12
-2.960290593e-12
-2.94096983e-12
-2.885049781e-12
-2.794977439e-12
-2.673532201e-12
-2.523720088e-12
-2.348668132e-12
-2.151524245e-12
-1.935367981e-12
-1.703137171e-12
-1.457574417e-12
-1.20119575e-12
-9.362823372e-13
-6.648939113e-13
-3.889010433e-13
-1.100320159e-13
1.700712243e-13
4.497936686e-13
7.274902356e-13
1.001436394e-12
1.26979053e-12
1.530571196e-12
1.781650893e-12
2.020766816e-12
2.24554778e-12
2.453555393e-12
2.642336887e-12
2.809486377e-12
2.952711049e-12
3.069898598e-12
3.159182483e-12
3.21900151e-12
3.248151026e-12
3.245823118e-12
3.211634208e-12
3.145638844e-12
3.048329442e-12
2.920622538e-12
2.763832777e-12
2.57963668e-12
2.370028678e-12
2.137272265e-12
1.88384928e-12
1.612410045e-12
1.32572673e-12
1.026651731e-12
7.1808208e-13
4.02929964e-13
8.409897985e-14
-2.355353111e-13
-5.53141943e-13
-8.659501574e-13
-1.171265693e-12
-1.466489143e-12
-1.749137245e-12
-2.01686719e-12
-2.267503516e-12
-2.499066392e-12
-2.709799832e-12
-2.898197933e-12
-3.06302728e-12
-3.203343913e-12
-3.318503666e-12
-3.408165211e-12
-3.472285841e-12
-3.511110609e-12
-3.52515596e-12
-3.515189437e-12
-3.482207151e-12
-3.427410679e-12
-3.352184771e-12
-3.258076879e-12
-3.146778776e-12
-3.020110188e-12
-2.880003397e-12
-2.728487669e-12
-2.567671679e-12
-2.399722194e-12
-2.226837431e-12
-2.051213605e-12
-1.875004283e-12
-1.700272493e-12
-1.528936707e-12
-1.362712671e-12
-1.203054052e-12
-1.051095343e-12
-9.07601177e-13
-7.729262489e-13
-6.46989984e-13
-5.292691898e-13
-4.188116313e-13
-3.142714745e-13
-2.139670348e-13
-1.159587051e-13
-1.81444189e-14
8.163240041e-14
1.854678508e-13
2.952824424e-13
4.127127911e-13
5.390172218e-13
6.750015219e-13
8.209704659e-13
9.767083976e-13
1.14149096e-12
1.314127371e-12
1.493030544e-12
1.676310196e-12
1.861882088e-12
2.047585071e-12
2.231297124e-12
2.411041239e-12
2.585072622e-12
2.751940886e-12
2.910522289e-12
3.060020449e-12
3.199936446e-12
3.330012566e-12
3.450156098e-12
3.560351679e-12
3.660571781e-12
3.750694797e-12
3.830439386e-12
3.899322e-12
3.956641388e-12
4.001492004e-12
4.032804393e-12
4.049408785e-12
4.050115856e-12
4.033807598e-12
3.999530974e-12
3.946587628e-12
3.874613493e-12
3.783643762e-12
3.674159731e-12
3.547114838e-12
3.403937203e-12
3.246507303e-12
3.077107591e-12
2.898342355e-12
2.71302653e-12
2.524043261e-12
2.33417475e-12
2.145913558e-12
1.961268837e-12
1.78158648e-12
1.607408088e-12
1.438396528e-12
1.273355611e-12
1.110366388e-12
9.470534075e-13
7.809782706e-13
6.101382918e-13
4.335266003e-13
2.516876148e-13
6.718283095e-14
-1.151280741e-13
-2.880870077e-13
-4.426000445e-13
-5.684164179e-13
-6.553328696e-13
-6.947757495e-13
-6.816485604e-13
-6.162664343e-13
-5.06139998e-13
-3.673293487e-13
-2.250718846e-13
-1.1340511e-13
-7.356079811e-14
-1.510042238e-13
-3.911239109e-13
-8.337412699e-13
-1.506787805e-12
-2.419674859e-12
-3.557038594e-12
-4.873656558e-12
-6.291385828e-12
-7.698948313e-12
-8.955298685e-12
-9.897160713e-12
-1.035129085e-11
-1.015194726e-11
-9.164973789e-12
-7.317572419e-12
-4.63408142e-12
-1.237185255e-12
2.737703453e-12
5.216326143e-12
5.522186169e-12
5.798775069e-12
6.069178814e-12
6.338259284e-12
6.606639184e-12
6.873665328e-12
7.13876725e-12
7.401449196e-12
7.661381042e-12
7.918306192e-12
8.17196921e-12
8.422121027e-12
8.66846624e-12
8.910699477e-12
9.148511781e-12
9.381564196e-12
9.609511485e-12
9.831995204e-12
1.004865231e-11
1.025909985e-11
1.046292707e-11
1.065972879e-11
1.084906982e-11
1.103051793e-11
1.120358063e-11
1.136778876e-11
1.152262571e-11
1.166757961e-11
1.180207968e-11
1.192556655e-11
1.203742768e-11
1.213704015e-11
1.222375132e-11
1.22968581e-11
1.235564957e-11
1.239937261e-11
1.242722404e-11
1.243837782e-11
1.24319635e-11
1.240705894e-11
1.236269748e-11
1.229785905e-11
1.221148421e-11
1.210243691e-11
1.196952586e-11
1.181150783e-11
1.162705488e-11
1.141476364e-11
1.1173169e-11
1.090070321e-11
1.059572247e-11
1.025647252e-11
9.881116985e-12
9.46769811e-12
9.014144211e-12
8.518258512e-12
7.977714581e-12
7.390051802e-12
6.752659239e-12
6.062754307e-12
5.317407976e-12
4.513489981e-12
3.647699188e-12
2.716514149e-12
1.716220837e-12
6.428547845e-13
-5.077830714e-13
-1.740138295e-12
-3.058950718e-12
-4.469228825e-12
-5.976296047e-12
-7.585789708e-12
-9.303713777e-12
-1.113640109e-11
-1.309060255e-11
-1.517343954e-11
-1.739248296e-11
-1.975573939e-11
-2.227170189e-11
-2.494935322e-11
-2.77982022e-11
-3.082832446e-11
-3.405033951e-11
-3.747552383e-11
-4.111575233e-11
-4.498360132e-11
-4.909233051e-11
-5.345592897e-11
-5.808917319e-11
-6.300763166e-11
-6.822770729e-11
-7.3766686e-11
-7.964275563e-11
-8.587505367e-11
-9.248371141e-11
-9.948986517e-11
-1.069157303e-10
-1.147846143e-10
-1.231209701e-10
-1.31950431e-10
-1.412998361e-10
-1.511973105e-10
-1.616722418e-10
-1.727553851e-10
-1.844788588e-10
-1.968761767e-10
-2.099823237e-10
-2.238337621e-10
-2.384684671e-10
-2.539259715e-10
-2.702473912e-10
-2.874754433e-10
-3.056545014e-10
-3.248305922e-10
-3.450514423e-10
-3.663664665e-10
-3.888268467e-10
-4.12485461e-10
-4.373969676e-10
-4.636177732e-10
-4.912060561e-10
-5.202217541e-10
-5.507265606e-10
-5.827839345e-10
-6.1645904e-10
-6.518187951e-10
-6.889317788e-10
-7.27868261e-10
-7.687001194e-10
-8.115008248e-10
-8.563453948e-10
-9.033103266e-10
-9.524735638e-10
-1.003914388e-09
-1.057713371e-09
-1.113952321e-09
-1.172714147e-09
-1.234082795e-09
-1.298143164e-09
-1.364980943e-09
-1.434682556e-09
-1.507335008e-09
-1.583025789e-09
-1.661842688e-09
-1.743873718e-09
-1.829206898e-09
-1.917930167e-09
-2.010131193e-09
-2.105897194e-09
-2.205314801e-09
-2.308469842e-09
-2.415447221e-09
-2.526330662e-09
-2.641202583e-09
-2.760143856e-09
-2.883233638e-09
-3.010549182e-09
-3.142165597e-09
-3.27815569e-09
-3.418589744e-09
-3.563535304e-09
-3.713057023e-09
-3.867216376e-09
-4.026071551e-09
-4.189677225e-09
-4.358084314e-09
-4.531339881e-09
-4.70948687e-09
-4.89256398e-09
-5.080605488e-09
-5.27364103e-09
-5.471695541e-09
-5.674789036e-09
-5.882936484e-09
-6.096147702e-09
-6.314427256e-09
-6.537774299e-09
-6.766182535e-09
-6.999640161e-09
-7.238129721e-09
-7.481628155e-09
-7.730106736e-09
-7.983531047e-09
-8.241860979e-09
-8.505050833e-09
-8.773049245e-09
-9.045799371e-09
-9.323238872e-09
-9.605300084e-09
-9.891910148e-09
-1.018299109e-08
-1.047846008e-08
-1.077822956e-08
-1.10822075e-08
-1.139029765e-08
-1.170239976e-08
-1.201840989e-08
-1.233822077e-08
-1.266172208e-08
-1.298880083e-08
-1.331934179e-08
-1.365322781e-08
-1.399034047e-08
-1.433056024e-08
-1.467376725e-08
-1.501984173e-08
-1.536866446e-08
-1.572011745e-08
-1.607408458e-08
-1.643045202e-08
-1.678910925e-08
-1.714994928e-08
-1.751286981e-08
-1.787777364e-08
-1.824456956e-08
-1.861317328e-08
-1.898350797e-08
-1.935550533e-08
-1.972910633e-08
-2.010426227e-08
-2.04809356e-08
-2.085910085e-08
-2.123874576e-08
-2.16198722e-08
-2.200249727e-08
-2.238665429e-08
-2.277239409e-08
-2.315978605e-08
-2.354891912e-08
-2.393990335e-08
-2.433287095e-08
-2.47279775e-08
-2.512540341e-08
-2.552535506e-08
-2.592806637e-08
-2.63338001e-08
-2.674284927e-08
-2.715553875e-08
-2.75722266e-08
-2.799330565e-08
-2.841920522e-08
-2.885039261e-08
-2.92873747e-08
-2.973069971e-08
-3.018095904e-08
-3.063878873e-08
-3.110487138e-08
-3.157993831e-08
-3.206477073e-08
-3.256020226e-08
-3.306712075e-08
-3.358646997e-08
-3.411925181e-08
-3.466652851e-08
-3.522942459e-08
-3.580912873e-08
-3.64068965e-08
-3.702405174e-08
-3.766198838e-08
-3.832217189e-08
-3.900612728e-08
-3.971559152e-08
-4.044709996e-08
-4.120805222e-08
-4.20041736e-08
-4.284398113e-08
-4.371577048e-08
-4.462151839e-08
-4.556345883e-08
-4.654391681e-08
-4.75653368e-08
-4.863028045e-08
-4.974143233e-08
-5.090160527e-08
-5.211374447e-08
-5.338090659e-08
-5.47077384e-08
-5.611896637e-08
-5.759819466e-08
-5.914874485e-08
-6.077445566e-08
-6.247383156e-08
-6.425186934e-08
-6.611644127e-08
-6.807179005e-08
-7.012227845e-08
-7.227246428e-08
-7.452708081e-08
-7.689103715e-08
-7.936942473e-08
-8.196752296e-08
-8.469080545e-08
-8.754494939e-08
-9.053584087e-08
-9.36695845e-08
-9.6952512e-08
-1.0039119e-07
-1.039924304e-07
-1.077633005e-07
-1.11711133e-07
-1.158435384e-07
-1.20168416e-07
-1.24693968e-07
-1.294287121e-07
-1.343814972e-07
-1.395615187e-07
-1.449783351e-07
-1.506418873e-07
-1.565625167e-07
-1.627509878e-07
-1.692185104e-07
-1.759767656e-07
-1.83037932e-07
-1.904147188e-07
-1.981203971e-07
-2.061688404e-07
-2.145745665e-07
-2.233527863e-07
-2.325194625e-07
-2.420913715e-07
-2.520861832e-07
-2.625225492e-07
-2.734202114e-07
-2.848001274e-07
-2.966846289e-07
-3.090976051e-07
-3.220647336e-07
-3.356137575e-07
-3.497748307e-07
-3.645809419e-07
-3.800684398e-07
-3.962776854e-07
-4.132538631e-07
-4.310479941e-07
-4.49718197e-07
-4.693312685e-07
-4.899646576e-07
-5.117089371e-07
-5.346709067e-07
-5.589774681e-07
-5.847805031e-07
-6.122629757e-07
-6.416465957e-07
-6.73201433e-07
-7.072579777e-07
-7.442222759e-07
-7.845949204e-07
-8.289948787e-07
-8.781893884e-07
-9.331314599e-07
-9.95006921e-07
-1.065293423e-06
-1.145834432e-06
-1.238932011e-06
-1.347463138e-06
-1.475025508e-06
-1.626120256e-06
-1.806380924e-06
-2.022860308e-06
-2.284389723e-06
-2.60202896e-06
-2.989629581e-06
-3.46454007e-06
-4.048488264e-06
-4.768685449e-06
-5.659207368e-06
-6.762721228e-06
-8.132644766e-06
-9.835844637e-06
-1.195600793e-05
-1.459785334e-05
-1.789238922e-05
-2.200347675e-05
-2.713601852e-05
-3.354617163e-05
-4.155407953e-05
-5.155973731e-05
-6.406275042e-05
-7.968693077e-05
-9.921089463e-05
-0.0001236061038
-0.0001540841275
-0.0001921553161
-0.0002397015786
-0.0002990665766
-0.0003731673849
-0.0004656325746
-0.0005809727658
-0.0007247909843
-0.0009040417302
-0.001127349479
-0.001405399514
-0.001751416496
-0.002181749035
-0.002716581827
-0.003380800567
-0.00420503869
-0.005226939278
-0.00649266943
-0.008058728303
-0.009994092893
-0.01238274721
-0.01532663932
-0.01894910626
-0.02339879602
-0.02885409836
-0.03552807824
-0.04367379435
-0.05359002628
-0.06562703539
-0.08019218796
-0.09775496571
-0.1188507519
-0.1440828261
-0.1741211642
-0.209697453
-0.2515945927
-0.3006293814
-0.3576268523
-0.4233848458
-0.4986276469
-0.5839479925
-0.6797374548
-0.7861061397
-0.9027937686
-1.029075512
-1.163666966
-1.3046343
-1.449315698
-1.594261319
-1.735198564
-1.867028189
-1.983857238
-2.079064989
-2.145403213
-2.175117129
-2.160064469
-2.091841407
-1.961830268
-1.761251272
-1.481120162
-1.112189252
-0.6449825176
-0.07055433925
0.6162720057
1.407294816
2.367684343
3.382030986
5.120751569
6.862462776
8.447002146
7.487673312
9.819980976
10.82377542
10.97000547
11.2318678
12.99013522
15.65355696
15.43428261
10.6374789
3.462624654
-3.499908111
-9.734746971
-10.49284739
-14.91727058
-19.06797155
-23.20608013
-23.0904382
-27.33022389
-31.87794285
-36.66412323
-32.15415997
-35.61998384
-38.03334307
-39.77549981
-41.51831181
-44.0257491
-47.45795226
-48.04730137
-50.341245
-49.62219539
-46.64269402
-41.45381651
-35.11307703
-28.59383805
-22.6200112
-17.44981173
-13.08189725
-9.678806084
-7.087032513
-5.14548461
-3.714833112
-2.677867602
-1.931657338
-1.394498725
-1.007326563
-0.7190763427
-0.511909876
-0.3658714281
-0.2606496563
-0.1851721965
-0.1312451271
-0.09284019881
-0.06556125923
-0.04621156254
-0.03252986192
-0.02286357668
-0.01604456792
-0.01124127486
-0.007862873331
-0.005490271284
-0.003826630783
-0.002661998674
-0.001848078849
-0.001280271054
-0.0008848955767
-0.0006101308595
-0.000419583005
-0.0002877324759
-0.000196713909
-0.0001340416381
-9.100532743e-05
-6.153984925e-05
-4.143036824e-05
-2.775404437e-05
-1.848853374e-05
-1.223790209e-05
-8.041069019e-06
-5.238170715e-06
-3.377506554e-06
-2.1508746e-06
-1.348730663e-06
-8.291643208e-07
-4.964866635e-07
-2.864414167e-07
-1.561660187e-07
-7.723262241e-08
-3.092041206e-08
-5.002785814e-09
8.427417498e-09
1.442360459e-08
1.616843168e-08
1.56291558e-08
1.399228441e-08
1.19483779e-08
9.878013113e-09
7.974787532e-09
6.32149073e-09
4.937988494e-09
3.810786656e-09
2.910788586e-09
2.203579511e-09
1.655060834e-09
1.234257096e-09
9.144571944e-10
6.734185297e-10
4.930818611e-10
3.590645979e-10
2.600864689e-10
1.874109312e-10
1.343429298e-10
9.579858575e-11
6.794843175e-11
4.79286436e-11
3.361158345e-11
2.342614209e-11
1.621877305e-11
1.114710261e-11
7.59920158e-12
5.132808825e-12
3.429897347e-12
2.262927977e-12
1.469933255e-12
9.362238212e-13
5.810285855e-13
3.477881218e-13
1.971376348e-13
1.018593671e-13
4.326965351e-14
8.645808126e-15
-1.059703731e-14
-2.019086292e-14
-2.391530977e-14
-2.422509848e-14
-2.268437005e-14
-2.026527169e-14
-1.755163361e-14
-1.487669461e-14
-1.241529954e-14
-1.024489369e-14
-8.385303986e-15
-6.824230708e-15
-5.533214093e-15
-4.477332814e-15
-3.620839711e-15
-2.930213734e-15
-2.375610559e-15
-1.931354241e-15
-1.57588342e-15
-1.291412913e-15
-1.063470313e-15
-8.80401696e-16
-7.328985985e-16
-6.135721391e-16
-5.165843901e-16
-4.373379627e-16
-3.722198297e-16
-3.183931912e-16
-2.736303948e-16
-2.361801121e-16
-2.046625626e-16
-1.779873777e-16
-1.552895293e-16
-1.358795551e-16
-1.192049649e-16
-1.048204054e-16
-9.23645963e-17
-8.154250807e-17
-7.211157464e-17
-6.387101112e-17
-5.66535129e-17
-5.0318783e-17
-4.474846492e-17
-3.98421498e-17
-3.551421793e-17
-3.16913205e-17
-2.831035722e-17
-2.531684306e-17
-2.26635771e-17
-2.030955038e-17
-1.82190439e-17
-1.636087725e-17
-1.470777934e-17
-1.323585742e-17
-1.192414777e-17
-1.075423252e-17
-9.709911445e-18
-8.776919927e-18
-7.942686069e-18
-7.196119965e-18
-6.527431649e-18
-5.927971758e-18
-5.39009388e-18
-4.907033439e-18
-4.472802343e-18
-4.082096765e-18
-3.730215847e-18
-3.412990901e-18
-3.126722934e-18
-2.868127861e-18
-2.634288427e-18
-2.42261161e-18
-2.230791204e-18
-2.05677502e-18
-1.898735804e-18
-1.755045594e-18
-1.624253083e-18
-1.505063697e-18
-1.396321971e-18
-1.296995857e-18
-1.206163035e-18
-1.122998636e-18
-1.046764446e-18
-9.767993927e-19
-9.125110507e-19
-8.533680969e-19
-7.9889368e-19
-7.486595122e-19
-7.022806174e-19
-6.594106921e-19
-6.19737954e-19
-5.82981482e-19
-5.488879495e-19
-5.172286945e-19
-4.877971687e-19
-4.604066071e-19
-4.348879964e-19
-4.110882574e-19
-3.888685768e-19
-3.681029856e-19
-3.486770454e-19
-3.304867045e-19
-3.134372465e-19
-2.974423881e-19
-2.824234312e-19
-2.683085316e-19
-2.550320207e-19
-2.425338264e-19
-2.307589357e-19
-2.196569115e-19
-2.09181481e-19
-1.992901158e-19
-1.899437159e-19
-1.811062809e-19
-1.727446426e-19
-1.64828198e-19
-1.573286824e-19
-1.502199753e-19
-1.434778998e-19
-1.37080062e-19
-1.310057039e-19
-1.252355524e-19
-1.197517054e-19
-1.145375119e-19
-1.095774775e-19
-1.048571638e-19
-1.003631096e-19
-9.608274548e-20
-9.200433116e-20
-8.811689187e-20
-8.441015615e-20
-8.087450035e-20
-7.750091242e-20
-7.42809298e-20
-7.120660926e-20
-6.827049016e-20
-6.546555831e-20
-6.278521254e-20
-6.022323575e-20
-5.77737723e-20
-5.543130388e-20
-5.319062316e-20
-5.104681316e-20
-4.899523337e-20
-4.703149194e-20
-4.515144048e-20
-4.335115047e-20
-4.162690476e-20
-3.997518361e-20
-3.839264919e-20
-3.687614098e-20
-3.542265677e-20
-3.402934847e-20
-3.269351198e-20
-3.141258099e-20
-3.018411875e-20
-2.900580295e-20
-2.787542594e-20
-2.679089427e-20
-2.575020975e-20
-2.475147293e-20
-2.3792873e-20
-2.287268722e-20
-2.19892734e-20
-2.114106612e-20
-2.032657183e-20
-1.954436652e-20
-1.879309224e-20
-1.807145305e-20
-1.737821092e-20
-1.67121829e-20
-1.60722438e-20
-1.545731575e-20
-1.486636825e-20
-1.429841966e-20
-1.375252771e-20
-1.322779317e-20
-1.272335685e-20
-1.223839735e-20
-1.177212803e-20
-1.13237959e-20
-1.089268015e-20
-1.047809224e-20
-1.007937096e-20
-9.69588543e-21
-9.327030156e-21
-8.972225877e-21
-8.630916497e-21
-8.302570987e-21
-7.98667909e-21
-7.682752627e-21
-7.390323271e-21
-7.108941974e-21
-6.838178842e-21
-6.577619853e-21
-6.326870196e-21
-6.085550235e-21
-5.853295245e-21
-5.629756811e-21
-5.414598431e-21
-5.207498983e-21
-5.008150054e-21
-4.816255206e-21
-4.63152953e-21
-4.453700485e-21
-4.282504811e-21
-4.117691044e-21
-3.959018188e-21
-3.806253411e-21
-3.659173348e-21
-3.517563805e-21
-3.381219102e-21
-3.249940129e-21
-3.12353799e-21
-3.001829504e-21
-2.8846392e-21
-2.771797848e-21
-2.663143655e-21
-2.558520627e-21
-2.457778509e-21
-2.3607737e-21
-2.267367364e-21
-2.177425179e-21
-2.090818834e-21
-2.007426362e-21
-1.927127743e-21
-1.849809432e-21
-1.775361578e-21
-1.703678185e-21
-1.63465856e-21
-1.56820409e-21
-1.504219992e-21
-1.442616273e-21
-1.383305266e-21
-1.326203814e-21
-1.271231894e-21
-1.218310968e-21
-1.167366223e-21
-1.118324909e-21
-1.07111819e-21
-1.025678838e-21
-9.819428822e-22
-9.398482883e-22
-8.993353504e-22
-8.603465436e-22
-8.228259551e-22
-7.867200804e-22
-7.519783321e-22
-7.185508967e-22
-6.863904622e-22
-6.55450979e-22
-6.25687983e-22
-5.970590768e-22
-5.695231754e-22
-5.430403536e-22
-5.17572632e-22
-4.930828284e-22
-4.695358287e-22
-4.468975209e-22
-4.251347419e-22
-4.042160977e-22
-3.84110956e-22
-3.647898388e-22
-3.462243233e-22
-3.2838696e-22
-3.112513019e-22
-2.947919118e-22
-2.789836208e-22
-2.638035225e-22
-2.492293079e-22
-2.352383464e-22
-2.218095182e-22
-2.089221947e-22
-1.965564417e-22
-1.846932946e-22
-1.733149323e-22
-1.624036971e-22
-1.51942145e-22
-1.419138654e-22
-1.32302851e-22
-1.230936507e-22
-1.142720103e-22
-1.058234528e-22
-9.773456653e-23
-8.999180536e-23
-8.258232793e-23
-7.549391536e-23
-6.871456222e-23
-6.223309821e-23
-5.603818018e-23
-5.011926767e-23
-4.446620452e-23
-3.906879579e-23
-3.391749094e-23
-2.900331913e-23
-2.431727629e-23
-1.985087786e-23
-1.559579519e-23
-1.154384999e-23
-7.687533534e-24
-4.019311828e-24
-5.321286343e-25
2.780852192e-24
5.926616354e-24
8.911318447e-24
1.174143938e-23
1.442278642e-23
1.696125333e-23
1.93622308e-23
2.163132044e-23
2.377368386e-23
2.579396405e-23
2.76972683e-23
2.948820153e-23
3.117111584e-23
3.275039083e-23
3.423042878e-23
3.561493816e-23
3.690773518e-23
3.8112858e-23
3.92336117e-23
4.027380929e-23
4.123670245e-23
4.212565412e-23
4.294339845e-23
4.369305066e-23
4.437751097e-23
4.499961749e-23
4.55619082e-23
4.606699956e-23
4.651744404e-23
4.691577688e-23
4.726421101e-23
4.756502319e-23
4.782029547e-23
4.803204443e-23
4.820228264e-23
4.833293792e-23
4.842618909e-23
4.848357056e-23
4.850676213e-23
4.849722017e-23
4.845655318e-23
4.838644861e-23
4.828856609e-23
4.816423341e-23
4.801479726e-23
4.784131748e-23
4.764516142e-23
4.742776062e-23
4.719012867e-23
4.693325342e-23
4.665834235e-23
4.636654853e-23
4.605877404e-23
4.573603293e-23
4.539930354e-23
4.50493846e-23
4.468720263e-23
4.431353293e-23
4.392892069e-23
4.353447461e-23
4.313071264e-23
4.271833965e-23
4.229800508e-23
4.187047646e-23
4.143645054e-23
4.09962357e-23
4.055058732e-23
4.01000262e-23
3.964507109e-23
3.918617449e-23
3.872388368e-23
3.825882776e-23
3.779120638e-23
3.732147431e-23
3.685009916e-23
3.637742312e-23
3.590385308e-23
3.542969307e-23
3.495527503e-23
3.44809897e-23
3.40071418e-23
3.353400149e-23
3.306195602e-23
3.259135167e-23
3.212233885e-23
3.165514823e-23
3.118999643e-23
3.072707638e-23
3.026665e-23
2.98090259e-23
2.935448259e-23
2.890298729e-23
2.845498526e-23
2.801056384e-23
2.756989413e-23
2.71331967e-23
2.670055148e-23
2.62721793e-23
2.584831368e-23
2.542914517e-23
2.501483318e-23
2.460561045e-23
2.420186269e-23
2.380391393e-23
2.341229002e-23
2.302743265e-23
2.264984958e-23
2.228019932e-23
2.191889854e-23
2.15658564e-23
2.122064801e-23
2.087987205e-23
2.053897891e-23
2.018616963e-23
1.980223671e-23
1.935519041e-23
1.87979562e-23
1.276022043e-23
1.206597298e-23
8.927637073e-24
6.544786281e-24
4.741131117e-24
3.391711679e-24
2.398348341e-24
1.677047994e-24
1.159865328e-24
7.940271065e-25
5.38530176e-25
3.610077932e-25
2.397473397e-25
1.574449859e-25
1.02411035e-25
6.576361836e-26
4.167444875e-26
2.612181487e-26
1.610492834e-26
9.769589385e-27
5.729049069e-27
3.311390903e-27
1.790141985e-27
1.010875196e-27
4.640190737e-28
2.089930832e-28
6.252771085e-29
-1.152081674e-29
-3.861150121e-29
-4.460132206e-29
-4.161538241e-29
-3.203302772e-29
-2.795813847e-29
-1.695295484e-29
-1.062130959e-29
-5.857404165e-30
-9.175352785e-30
-5.376336769e-30
-3.349772583e-30
-6.560809268e-31
-2.047696282e-31
2.706267498e-30
-3.547802459e-30
-5.832493512e-30
1.757307714e-30
-4.697112591e-30
-9.322595807e-30
1.423797154e-29
-2.191286564e-29
-8.22317606e-30
-2.259450337e-31
-9.682315862e-31
6.978152814e-30
-4.544664948e-30
-4.366203824e-31
-9.036615669e-30
-2.759303547e-30
1.182504483e-29
1.104332348e-29
-1.015770211e-29
-1.962522311e-29
-1.784633226e-29
2.032111776e-30
-1.075252522e-29
-1.353877879e-30
-4.436951873e-30
3.169313741e-31
-8.914579138e-31
-4.489600897e-31
-2.020039992e-30
5.714322325e-31
-8.001342795e-31
2.628221699e-30
1.70673177e-30
-1.474104212e-30
-2.19295144e-30
4.880464525e-30
-4.936687832e-30
4.709608516e-30
-7.038849654e-30
4.391245006e-30
-1.017024521e-29
-2.933368491e-30
-4.214836223e-31
1.357470642e-30
-1.955539876e-30
-1.549609381e-30
-1.221827772e-30
-1.216096463e-30
-1.11356622e-30
2.307669935e-30
-2.162070998e-30
-1.874701014e-31
-1.564406568e-30
3.171355121e-32
-6.377785195e-33
-4.520605704e-31
-3.217641578e-31
-2.959655554e-32
1.168439396e-31
-4.01870026e-32
9.747279474e-32
9.544006372e-32
-6.106798764e-32
-1.020312087e-31
-2.831839215e-31
-9.487579488e-32
-2.19638095e-31
2.791745738e-31
-1.96848067e-31
1.106111907e-31
1.041182024e-31
-2.119485488e-32
1.253618626e-31
-1.822639928e-31
-5.978766937e-32
3.006258416e-33
-4.581645865e-32
3.355489493e-33
-2.273232907e-32
8.908987564e-32
-3.691207519e-32
-5.104268824e-32
-9.615053022e-33
-2.068425869e-31
1.741783991e-32
-5.114862275e-32
2.943879287e-32
-1.596941501e-31
-7.140028231e-32
-1.990485687e-32
-1.796190273e-34
-2.258194107e-32
7.118256765e-32
-9.463696216e-32
-2.417504755e-32
-2.362219259e-31
-1.083510916e-31
1.663274218e-31
-3.505092234e-32
5.272867953e-32
3.596859258e-32
-4.273195107e-32
1.001912996e-31
1.524050506e-31
-1.201923583e-31
-1.619095361e-31
3.431214492e-31
2.135599669e-31
1.553427505e-31
1.673169128e-31
-1.681963178e-31
-5.984840355e-31
-3.200425361e-31
-1.896642277e-31
-5.292981011e-32
-1.593494619e-31
-9.695207877e-32
3.066696745e-31
1.011011353e-31
3.951023603e-31
-1.943174693e-32
5.024542831e-31
5.371442865e-31
1.065358718e-31
-2.774702665e-32
-1.359018722e-31
1.435774944e-32
4.486168157e-32
3.146700414e-31
-8.065092825e-33
7.226054941e-33
-2.129232068e-32
-7.369894942e-32
-8.989426906e-32
7.788700498e-32
2.576985134e-31
1.430009489e-31
3.44734889e-31
2.807609928e-31
1.809926495e-31
1.990709787e-31
3.154835355e-31
2.18459072e-31
4.709118164e-31
9.618720299e-32
1.132508988e-31
-1.291385871e-31
2.460818163e-31
-2.837798761e-32
2.076511277e-31
2.656319048e-31
-7.726232958e-33
2.758383027e-31
2.174518202e-31
1.878788583e-31
6.638249132e-32
9.914415798e-32
1.623768325e-31
-2.314584821e-31
-2.221514134e-31
-1.017053566e-31
5.149507187e-32
-6.593374808e-32
-8.715030636e-32
-8.689273345e-32
-8.844303183e-32
6.86558425e-32
3.404229977e-32
-5.987367134e-32
1.168593826e-31
1.449509123e-31
-5.584094162e-32
-5.862687724e-32
-5.523127011e-32
2.077754244e-31
-8.653407317e-32
5.045483897e-32
-2.416147367e-32
2.734070054e-32
3.381326883e-32
6.467999108e-33
-2.896976943e-32
-1.001980486e-32
-3.39283712e-32
6.263955367e-34
1.238274994e-31
-2.239281268e-32
7.385909558e-32
-3.680007904e-32
-9.619443857e-32
-7.760583934e-32
8.700669035e-32
8.517987267e-32
-2.298835052e-31
8.111160646e-32
-9.604858107e-32
-2.803470821e-31
-2.463213046e-31
-2.258267177e-31
-4.008390655e-31
-2.863136148e-31
-3.827429883e-31
-3.213719449e-31
-2.421937986e-31
-5.71263201e-31
-5.21870331e-31
-1.798937201e-31
-6.69161346e-33
-2.816726969e-31
)
;

boundaryField
{
    inlet
    {
        type            calculated;
        value           uniform 0;
    }
    outlet
    {
        type            calculated;
        value           uniform -2.816130276e-31;
    }
    wall
    {
        type            empty;
    }
}


// ************************************************************************* //
