/*--------------------------------*- C++ -*----------------------------------*\
  =========                 |
  \\      /  F ield         | OpenFOAM: The Open Source CFD Toolbox
   \\    /   O peration     | Website:  https://openfoam.org
    \\  /    A nd           | Version:  7
     \\/     M anipulation  |
\*---------------------------------------------------------------------------*/
FoamFile
{
    version     2.0;
    format      ascii;
    class       volScalarField;
    location    "0.000558243009";
    object      ddt0(rho,C3H4-A);
}
// * * * * * * * * * * * * * * * * * * * * * * * * * * * * * * * * * * * * * //

dimensions      [1 -3 -1 0 0 0 0];

internalField   nonuniform List<scalar> 
1500
(
-1.138318356e-09
-3.476595822e-09
-5.28730876e-09
-5.417040178e-09
-4.205189428e-09
-2.63533645e-09
-1.387125437e-09
-6.306757648e-10
-2.542096763e-10
-9.544935648e-11
-3.875172944e-11
-2.30448532e-11
-2.15670315e-11
-2.421369664e-11
-2.753379068e-11
-3.045176244e-11
-3.264706897e-11
-3.40277553e-11
-3.457582052e-11
-3.430294628e-11
-3.323844705e-11
-3.142540183e-11
-2.89186183e-11
-2.57829729e-11
-2.209181412e-11
-1.79254353e-11
-1.336968388e-11
-8.514761961e-12
-3.454226711e-12
1.715853603e-12
6.897674888e-12
1.199252028e-11
1.690175021e-11
2.152806261e-11
2.57770776e-11
2.955925863e-11
3.279212732e-11
3.540264642e-11
3.732964784e-11
3.85261205e-11
3.896117339e-11
3.862150365e-11
3.751223231e-11
3.565701686e-11
3.309741042e-11
2.98914948e-11
2.611187144e-11
2.184314112e-11
1.717903133e-11
1.22193452e-11
7.066902409e-12
1.824621341e-12
-3.407137553e-12
-8.532883488e-12
-1.346391584e-11
-1.811984469e-11
-2.242972651e-11
-2.633285043e-11
-2.97792191e-11
-3.272976833e-11
-3.515636128e-11
-3.704158285e-11
-3.837835177e-11
-3.916935223e-11
-3.942628952e-11
-3.916896817e-11
-3.842420345e-11
-3.722458531e-11
-3.560713088e-11
-3.361187549e-11
-3.128046615e-11
-2.8654828e-11
-2.577597569e-11
-2.268303637e-11
-1.941253709e-11
-1.599798734e-11
-1.246976854e-11
-8.855313029e-12
-5.179533784e-12
-1.465448736e-12
2.265074033e-12
5.990525205e-12
9.688994975e-12
1.333751536e-11
1.691155903e-11
2.038473631e-11
2.372871234e-11
2.691335024e-11
2.990706963e-11
3.267739509e-11
3.519165968e-11
3.741782094e-11
3.932534224e-11
4.088609111e-11
4.207520826e-11
4.28719011e-11
4.326012557e-11
4.322912159e-11
4.277378054e-11
4.189482889e-11
4.059882479e-11
3.889797509e-11
3.680978871e-11
3.435659419e-11
3.156495416e-11
2.846501466e-11
2.508982979e-11
2.14746976e-11
1.765653885e-11
1.367334291e-11
9.563693523e-12
5.366376355e-12
1.120062586e-12
-3.136949944e-12
-7.366957297e-12
-1.153305749e-11
-1.559936728e-11
-1.953126684e-11
-2.329568306e-11
-2.686141352e-11
-3.019948458e-11
-3.328352809e-11
-3.609015716e-11
-3.859931559e-11
-4.079457627e-11
-4.266336718e-11
-4.419710911e-11
-4.539125608e-11
-4.624523931e-11
-4.676232251e-11
-4.694938391e-11
-4.681664591e-11
-4.637737514e-11
-4.564757461e-11
-4.464568701e-11
-4.33923219e-11
-4.191001092e-11
-4.02229899e-11
-3.835699375e-11
-3.633904896e-11
-3.419723971e-11
-3.196042383e-11
-2.965787801e-11
-2.73188523e-11
-2.497202873e-11
-2.264488349e-11
-2.036296755e-11
-1.814913186e-11
-1.602273692e-11
-1.399889233e-11
-1.208778181e-11
-1.029412929e-11
-8.616861628e-12
-7.049010771e-12
-5.577894508e-12
-4.185588456e-12
-2.84969532e-12
-1.544382668e-12
-2.416543674e-13
1.087211731e-12
2.470132222e-12
3.932685221e-12
5.496667808e-12
7.178838815e-12
8.989930093e-12
1.093400064e-11
1.300817836e-11
1.520281597e-11
1.750205414e-11
1.988475546e-11
2.232574438e-11
2.479726228e-11
2.727052609e-11
2.971727393e-11
3.211117521e-11
3.442899216e-11
3.665140792e-11
3.87634561e-11
4.075453013e-11
4.261798524e-11
4.435038905e-11
4.595050688e-11
4.741813405e-11
4.875290392e-11
4.995319693e-11
5.101526607e-11
5.193267124e-11
5.269607291e-11
5.329341067e-11
5.371044112e-11
5.39315848e-11
5.394100183e-11
5.372380219e-11
5.326729292e-11
5.256217307e-11
5.160359381e-11
5.039202393e-11
4.893387348e-11
4.724184067e-11
4.533494584e-11
4.323823384e-11
4.098210327e-11
3.860123906e-11
3.613313157e-11
3.361617965e-11
3.108743773e-11
2.858010272e-11
2.612093325e-11
2.372785448e-11
2.14080796e-11
1.91571186e-11
1.695904014e-11
1.478828692e-11
1.261322181e-11
1.04013692e-11
8.126056602e-12
5.773874128e-12
3.35207253e-12
8.947667917e-13
-1.533319997e-12
-3.836853648e-12
-5.894717742e-12
-7.570388629e-12
-8.727975398e-12
-9.253290842e-12
-9.078457905e-12
-8.207673583e-12
-6.740967294e-12
-4.892233667e-12
-2.997593999e-12
-1.510372918e-12
-9.797110464e-13
-2.011132404e-12
-5.20913883e-12
-1.110408721e-11
-2.006798034e-11
-3.222616384e-11
-4.737402583e-11
-6.490932237e-11
-8.379151053e-11
-1.025392823e-10
-1.192766405e-10
-1.318365829e-10
-1.379321099e-10
-1.354033386e-10
-1.225576091e-10
-9.857371883e-11
-6.393287954e-11
-2.029027289e-11
3.083125245e-11
6.27000002e-11
6.674019268e-11
7.020958633e-11
7.35513328e-11
7.686302564e-11
8.016073574e-11
8.343633504e-11
8.667990405e-11
8.988186418e-11
9.303535284e-11
9.613528369e-11
9.917720158e-11
1.021570508e-10
1.050702301e-10
1.079119406e-10
1.106772195e-10
1.13360586e-10
1.159563709e-10
1.184586386e-10
1.208613084e-10
1.231579505e-10
1.253416766e-10
1.27405579e-10
1.293422486e-10
1.311442074e-10
1.328030597e-10
1.34310598e-10
1.356578522e-10
1.368357779e-10
1.378343995e-10
1.386437382e-10
1.392529424e-10
1.396508492e-10
1.398257152e-10
1.397649315e-10
1.394555802e-10
1.388839658e-10
1.38035499e-10
1.368950483e-10
1.354466403e-10
1.336733509e-10
1.315573889e-10
1.290799651e-10
1.262214666e-10
1.229609484e-10
1.192764052e-10
1.151448034e-10
1.105416313e-10
1.054410109e-10
9.981586859e-11
9.363737865e-11
8.687530616e-11
7.949753828e-11
7.147045287e-11
6.275838559e-11
5.332372223e-11
4.312674313e-11
3.212555737e-11
2.027603898e-11
7.531609962e-12
-6.15704383e-12
-2.084163401e-11
-3.657699559e-11
-5.34206742e-11
-7.143357515e-11
-9.067957956e-11
-1.112262991e-10
-1.33144843e-10
-1.565099524e-10
-1.814006073e-10
-2.078996505e-10
-2.36094366e-10
-2.660764192e-10
-2.979425109e-10
-3.317938155e-10
-3.677371078e-10
-4.058840578e-10
-4.463522073e-10
-4.892647001e-10
-5.347508666e-10
-5.829461642e-10
-6.339925529e-10
-6.880389195e-10
-7.452406406e-10
-8.057609563e-10
-8.697700368e-10
-9.374461996e-10
-1.008975498e-09
-1.084552155e-09
-1.164379144e-09
-1.248668052e-09
-1.337639424e-09
-1.431523194e-09
-1.530558694e-09
-1.634995043e-09
-1.745091482e-09
-1.861117244e-09
-1.983352264e-09
-2.112087064e-09
-2.24762315e-09
-2.390273177e-09
-2.540360952e-09
-2.698222184e-09
-2.864203818e-09
-3.038665093e-09
-3.221977133e-09
-3.414522999e-09
-3.616698349e-09
-3.82891114e-09
-4.051581728e-09
-4.285143092e-09
-4.530040796e-09
-4.786732849e-09
-5.055690083e-09
-5.337395727e-09
-5.632345673e-09
-5.941047967e-09
-6.264023517e-09
-6.601804809e-09
-6.954936711e-09
-7.323975745e-09
-7.709490114e-09
-8.112059269e-09
-8.532273615e-09
-8.970734433e-09
-9.428052868e-09
-9.904850438e-09
-1.040175764e-08
-1.091941428e-08
-1.145846828e-08
-1.201957548e-08
-1.260339904e-08
-1.32106086e-08
-1.384187995e-08
-1.449789373e-08
-1.517933503e-08
-1.588689293e-08
-1.662125892e-08
-1.738312658e-08
-1.817319071e-08
-1.899214575e-08
-1.984068554e-08
-2.071950187e-08
-2.162928389e-08
-2.257071631e-08
-2.35444792e-08
-2.455124594e-08
-2.559168295e-08
-2.666644814e-08
-2.77761895e-08
-2.892154442e-08
-3.010313792e-08
-3.132158221e-08
-3.257747456e-08
-3.387139694e-08
-3.52039141e-08
-3.657557279e-08
-3.798690067e-08
-3.943840454e-08
-4.09305698e-08
-4.246385905e-08
-4.403871076e-08
-4.565553888e-08
-4.73147306e-08
-4.901664659e-08
-5.076161963e-08
-5.254995288e-08
-5.438192035e-08
-5.625776505e-08
-5.817769883e-08
-6.014190169e-08
-6.215052041e-08
-6.420366937e-08
-6.630142906e-08
-6.844384593e-08
-7.063093242e-08
-7.286266693e-08
-7.513899301e-08
-7.745982017e-08
-7.982502417e-08
-8.223444623e-08
-8.468789469e-08
-8.718514504e-08
-8.972594047e-08
-9.23099925e-08
-9.493698303e-08
-9.760656378e-08
-1.003183592e-07
-1.030719664e-07
-1.058669577e-07
-1.087028825e-07
-1.115792678e-07
-1.144956218e-07
-1.174514352e-07
-1.204461838e-07
-1.234793317e-07
-1.265503328e-07
-1.296586346e-07
-1.328036815e-07
-1.359849174e-07
-1.392017894e-07
-1.424537522e-07
-1.457402706e-07
-1.490608257e-07
-1.524149162e-07
-1.558020655e-07
-1.59221826e-07
-1.626737821e-07
-1.661575574e-07
-1.696728197e-07
-1.732192843e-07
-1.767967241e-07
-1.8040497e-07
-1.840439223e-07
-1.877135531e-07
-1.914139146e-07
-1.951451471e-07
-1.989074835e-07
-2.027012577e-07
-2.065269119e-07
-2.103850049e-07
-2.142762197e-07
-2.182013704e-07
-2.22161412e-07
-2.261574488e-07
-2.301907426e-07
-2.342627212e-07
-2.383749896e-07
-2.425293381e-07
-2.467277505e-07
-2.509724174e-07
-2.552657448e-07
-2.596103629e-07
-2.640091396e-07
-2.684651883e-07
-2.729818818e-07
-2.775628621e-07
-2.822120519e-07
-2.869336681e-07
-2.917322313e-07
-2.966125795e-07
-3.015798812e-07
-3.066396476e-07
-3.117977452e-07
-3.170604097e-07
-3.224342609e-07
-3.279263134e-07
-3.335439925e-07
-3.392951519e-07
-3.45188081e-07
-3.512315264e-07
-3.574347065e-07
-3.638073236e-07
-3.703595824e-07
-3.771022077e-07
-3.840464598e-07
-3.91204148e-07
-3.985876537e-07
-4.062099389e-07
-4.14084559e-07
-4.222256664e-07
-4.306478526e-07
-4.393682414e-07
-4.483446437e-07
-4.576567878e-07
-4.673657822e-07
-4.77563898e-07
-4.881158907e-07
-4.99039329e-07
-5.103548489e-07
-5.220838712e-07
-5.342488898e-07
-5.468734327e-07
-5.59982129e-07
-5.736007549e-07
-5.877562924e-07
-6.024766242e-07
-6.178068049e-07
-6.340191724e-07
-6.50921337e-07
-6.685420001e-07
-6.869164494e-07
-7.060187498e-07
-7.258957782e-07
-7.466274076e-07
-7.682518581e-07
-7.908079775e-07
-8.143364601e-07
-8.388795784e-07
-8.644811599e-07
-8.911866435e-07
-9.190431268e-07
-9.480994206e-07
-9.784061389e-07
-1.010015743e-06
-1.042982633e-06
-1.077363231e-06
-1.113216049e-06
-1.150601786e-06
-1.189583432e-06
-1.230226353e-06
-1.272598417e-06
-1.316770099e-06
-1.362814631e-06
-1.41080812e-06
-1.460829725e-06
-1.512961817e-06
-1.567290171e-06
-1.623904186e-06
-1.682897111e-06
-1.744366327e-06
-1.808413644e-06
-1.875145651e-06
-1.944674106e-06
-2.017116416e-06
-2.09259614e-06
-2.17124363e-06
-2.253196736e-06
-2.338601653e-06
-2.427613933e-06
-2.520399622e-06
-2.61713668e-06
-2.718016613e-06
-2.823246443e-06
-2.933051015e-06
-3.04767583e-06
-3.167390335e-06
-3.292491949e-06
-3.423310815e-06
-3.560215574e-06
-3.703620245e-06
-3.853992522e-06
-4.011863738e-06
-4.177840857e-06
-4.352620926e-06
-4.537008442e-06
-4.731936303e-06
-4.938491036e-06
-5.157943163e-06
-5.391783888e-06
-5.641769137e-06
-5.909972846e-06
-6.198851002e-06
-6.511318925e-06
-6.850844388e-06
-7.221559797e-06
-7.628397409e-06
-8.077252238e-06
-8.575178332e-06
-9.130625213e-06
-9.75372266e-06
-1.045662372e-05
-1.125391774e-05
-1.216312766e-05
-1.320530863e-05
-1.44057686e-05
-1.579493543e-05
-1.740940013e-05
-1.929317197e-05
-2.149918791e-05
-2.409112752e-05
-2.714559524e-05
-3.075474286e-05
-3.502942103e-05
-4.010296508e-05
-4.613574215e-05
-5.332061028e-05
-6.188947148e-05
-7.212113519e-05
-8.435075024e-05
-9.898111571e-05
-0.000116496239
-0.0001374775805
-0.0001626235114
-0.0001927726049
-0.0002289315095
-0.0002723082783
-0.0003243522105
-0.0003868014353
-0.0004617397169
-0.0005516642046
-0.0006595661769
-0.0007890271853
-0.0009443334182
-0.001130611579
-0.001353990153
-0.001621790511
-0.001942753046
-0.002327304317
-0.002787871998
-0.00333925543
-0.003999060483
-0.004788208535
-0.005731530306
-0.006858456187
-0.008203815483
-0.00980875744
-0.01172180659
-0.01400006451
-0.01671056777
-0.01993180886
-0.02375542097
-0.02828802011
-0.03365318593
-0.03999354777
-0.04747292029
-0.05627840715
-0.06662238049
-0.07874404152
-0.09291067959
-0.1094179481
-0.1285891255
-0.1507728551
-0.176338853
-0.2056714288
-0.239159436
-0.2771831476
-0.320096807
-0.3682067457
-0.4217448172
-0.4808372395
-0.5454693096
-0.6154469498
-0.690356596
-0.7695255136
-0.8519851768
-0.9364408404
-1.021250413
-1.10441625
-1.183592254
-1.256108484
-1.319013856
-1.369135468
-1.403153384
-1.417681743
-1.409354704
-1.374906728
-1.311237497
-1.215474161
-1.084991016
-0.9174467058
-0.7107905189
-0.4632934803
-0.1736690331
0.1584722467
0.5313806203
0.938203737
1.406708282
1.884668627
2.651993003
3.366343771
3.962416879
3.599121411
4.691188968
5.519605178
6.271397777
7.033450829
7.842658166
8.736402278
9.720227572
10.87944581
12.32248531
13.3755924
15.73491921
13.1418916
15.08389626
16.44756172
17.14238209
12.12033164
7.886833344
-0.6819922118
-14.60828514
-39.93069531
-64.72545438
-89.56507801
-106.3713975
-105.776311
-83.05742177
-40.97441346
14.27035149
57.3301347
86.20807573
89.0848303
76.19554197
54.73221849
30.86438503
9.824276851
-5.46301949
-13.74637372
-18.36558544
-19.88308737
-19.43544661
-17.53145457
-15.44326521
-13.28108241
-11.28964031
-9.714007815
-7.796621296
-6.192292261
-5.028006178
-4.019730327
-3.176621148
-2.489570833
-1.939710598
-1.505151366
-1.162880398
-0.897429606
-0.6913345373
-0.5318578073
-0.4087766113
-0.3139816181
-0.2410928633
-0.1851211916
-0.1421832193
-0.1092675626
-0.08404652935
-0.06472485695
-0.04992154828
-0.03857618072
-0.02987574964
-0.02319775546
-0.01806607502
-0.01411685217
-0.01107219995
-0.008719976232
-0.006898262035
-0.005483470125
-0.004381248709
-0.003519533969
-0.002843248301
-0.002310258538
-0.001888296929
-0.00155261675
-0.001284207889
-0.001068438888
-0.0008940234933
-0.0007522340416
-0.0006363024915
-0.0005409640948
-0.0004621094773
-0.0003965191267
-0.0003416605365
-0.0002955330102
-0.0002565487399
-0.0002234415147
-0.0001951964981
-0.0001709960848
-0.0001501780499
-0.0001322031088
-0.0001166296934
-0.0001030942761
-9.129596285e-05
-8.098438672e-05
-7.195015266e-05
-6.401726568e-05
-5.703710257e-05
-5.088359042e-05
-4.544933145e-05
-4.064247312e-05
-3.638416714e-05
-3.260649623e-05
-2.925077359e-05
-2.626614108e-05
-2.360840772e-05
-2.123908246e-05
-1.912456486e-05
-1.723546475e-05
-1.554602757e-05
-1.403364715e-05
-1.267845066e-05
-1.146294385e-05
-1.037170674e-05
-9.391131661e-06
-8.509197043e-06
-7.715271665e-06
-6.999944674e-06
-6.354877746e-06
-5.772676216e-06
-5.246776529e-06
-4.771347787e-06
-4.341205525e-06
-3.951736067e-06
-3.598830128e-06
-3.278824449e-06
-2.988450457e-06
-2.724789083e-06
-2.485230954e-06
-2.267441321e-06
-2.069329115e-06
-1.88901967e-06
-1.724830631e-06
-1.57525055e-06
-1.438920648e-06
-1.314617368e-06
-1.201238343e-06
-1.097789093e-06
-1.003371664e-06
-9.171743974e-07
-8.384629254e-07
-7.665721569e-07
-7.008991806e-07
-6.40896954e-07
-5.860686944e-07
-5.359628877e-07
-4.901688414e-07
-4.48312717e-07
-4.100539894e-07
-3.750822795e-07
-3.431145201e-07
-3.138924135e-07
-2.871801521e-07
-2.627623666e-07
-2.404422805e-07
-2.200400469e-07
-2.013912455e-07
-1.843455249e-07
-1.687653736e-07
-1.545250054e-07
-1.415093482e-07
-1.296131246e-07
-1.187400157e-07
-1.088018995e-07
-9.97181561e-08
-9.141503388e-08
-8.382507047e-08
-7.688656322e-08
-7.054308498e-08
-6.474304061e-08
-5.943926112e-08
-5.45886313e-08
-5.015174868e-08
-4.609261078e-08
-4.237832818e-08
-3.897886133e-08
-3.586677908e-08
-3.301703726e-08
-3.040677531e-08
-2.801512991e-08
-2.582306405e-08
-2.381321006e-08
-2.196972589e-08
-2.02781633e-08
-1.872534696e-08
-1.729926391e-08
-1.598896206e-08
-1.478445748e-08
-1.367664939e-08
-1.265724247e-08
-1.171867586e-08
-1.085405804e-08
-1.005710765e-08
-9.322099089e-09
-8.643813092e-09
-8.017491512e-09
-7.438796099e-09
-6.903770851e-09
-6.408807769e-09
-5.950615608e-09
-5.526191377e-09
-5.132794436e-09
-4.767922917e-09
-4.429292168e-09
-4.114815291e-09
-3.822585286e-09
-3.550858926e-09
-3.298042021e-09
-3.062676058e-09
-2.843426056e-09
-2.639069512e-09
-2.448486361e-09
-2.270649853e-09
-2.104618292e-09
-1.949527466e-09
-1.804583837e-09
-1.669058311e-09
-1.542280586e-09
-1.423634036e-09
-1.31255102e-09
-1.208508661e-09
-1.111024979e-09
-1.019655392e-09
-9.339895207e-10
-8.536482874e-10
-7.782812858e-10
-7.075643583e-10
-6.411974203e-10
-5.789024698e-10
-5.204217555e-10
-4.655161375e-10
-4.139635598e-10
-3.655576873e-10
-3.201066379e-10
-2.774318361e-10
-2.373669686e-10
-1.997570197e-10
-1.644573903e-10
-1.313331051e-10
-1.002580739e-10
-7.111441251e-11
-4.379183616e-11
-1.818708574e-11
5.796584103e-12
2.824988581e-11
4.925793608e-11
6.890065249e-11
8.725312884e-11
1.043859688e-10
1.203656091e-10
1.352545932e-10
1.491118467e-10
1.619929214e-10
1.739502142e-10
1.850331834e-10
1.952885378e-10
2.04760414e-10
2.13490542e-10
2.215183958e-10
2.288813398e-10
2.356147514e-10
2.41752148e-10
2.473252983e-10
2.523643265e-10
2.568978089e-10
2.60952862e-10
2.645552339e-10
2.677293739e-10
2.704985098e-10
2.72884716e-10
2.749089759e-10
2.765912416e-10
2.779504882e-10
2.790047684e-10
2.79771258e-10
2.802663054e-10
2.805054681e-10
2.805035595e-10
2.802746831e-10
2.798322665e-10
2.791890988e-10
2.783573592e-10
2.773486469e-10
2.76174009e-10
2.748439681e-10
2.733685455e-10
2.71757286e-10
2.700192793e-10
2.681631814e-10
2.661972351e-10
2.641292877e-10
2.619668103e-10
2.597169139e-10
2.573863665e-10
2.549816072e-10
2.525087627e-10
2.499736591e-10
2.473818374e-10
2.44738564e-10
2.420488444e-10
2.393174339e-10
2.365488492e-10
2.337473775e-10
2.309170889e-10
2.280618431e-10
2.251853008e-10
2.222909315e-10
2.193820216e-10
2.164616829e-10
2.135328604e-10
2.105983388e-10
2.076607499e-10
2.0472258e-10
2.017861751e-10
1.988537478e-10
1.959273833e-10
1.930090442e-10
1.901005774e-10
1.872037173e-10
1.843200925e-10
1.814512299e-10
1.78598559e-10
1.757634166e-10
1.729470511e-10
1.701506261e-10
1.673752249e-10
1.646218536e-10
1.618914448e-10
1.591848611e-10
1.56502899e-10
1.5384629e-10
1.512157065e-10
1.48611762e-10
1.460350157e-10
1.434859741e-10
1.409650942e-10
1.384727853e-10
1.36009412e-10
1.335752958e-10
1.311707178e-10
1.287959203e-10
1.26451109e-10
1.24136455e-10
1.218520963e-10
1.195981397e-10
1.173746626e-10
1.151817142e-10
1.130193173e-10
1.108874701e-10
1.087861465e-10
1.067152989e-10
1.046748583e-10
1.026647083e-10
1.006847988e-10
9.873497641e-11
9.68151007e-11
9.492501214e-11
9.306454088e-11
9.123349818e-11
8.943168852e-11
8.765890347e-11
8.591492379e-11
8.419951981e-11
8.251245234e-11
8.085347325e-11
7.922232646e-11
7.761874841e-11
7.604246881e-11
7.449321111e-11
7.29706932e-11
7.147462768e-11
7.000472272e-11
6.856068223e-11
6.714220662e-11
6.574899288e-11
6.438073526e-11
6.303712555e-11
6.171785353e-11
6.042260718e-11
5.915107323e-11
5.790293716e-11
5.66778839e-11
5.547559779e-11
5.429576296e-11
5.313806362e-11
5.200218426e-11
5.088780986e-11
4.979462616e-11
4.872231979e-11
4.767057857e-11
4.663909149e-11
4.562754913e-11
4.463564358e-11
4.36630688e-11
4.270952057e-11
4.177469671e-11
4.085829723e-11
3.99600244e-11
3.907958277e-11
3.821667948e-11
3.737102411e-11
3.654232895e-11
3.573030894e-11
3.493468183e-11
3.415516819e-11
3.339149151e-11
3.264337823e-11
3.191055774e-11
3.119276254e-11
3.048972815e-11
2.980119327e-11
2.912689964e-11
2.846659223e-11
2.782001919e-11
2.718693189e-11
2.656708488e-11
2.596023596e-11
2.536614615e-11
2.478457976e-11
2.421530428e-11
2.36580905e-11
2.311271245e-11
2.257894732e-11
2.205657566e-11
2.154538112e-11
2.104515064e-11
2.055567432e-11
2.007674545e-11
1.960816051e-11
1.914971909e-11
1.870122393e-11
1.82624809e-11
1.783329892e-11
1.741349e-11
1.700286918e-11
1.660125454e-11
1.620846711e-11
1.582433092e-11
1.544867292e-11
1.508132298e-11
1.472211384e-11
1.43708811e-11
1.402746317e-11
1.369170126e-11
1.336343934e-11
1.304252409e-11
1.272880494e-11
1.242213391e-11
1.212236571e-11
1.182935764e-11
1.154296955e-11
1.126306385e-11
1.098950543e-11
1.072216167e-11
1.046090237e-11
1.020559977e-11
9.956128427e-12
9.712365281e-12
9.47418956e-12
9.241482778e-12
9.014128678e-12
8.79201321e-12
8.575024518e-12
8.36305287e-12
8.155990655e-12
7.95373235e-12
7.756174479e-12
7.563215563e-12
7.374756144e-12
7.190698698e-12
7.010947639e-12
6.83540926e-12
6.663991751e-12
6.496605114e-12
6.333161165e-12
6.173573511e-12
6.017757495e-12
5.865630209e-12
5.717110408e-12
5.572118551e-12
5.430576721e-12
5.292408626e-12
5.157539566e-12
5.025896413e-12
4.897407577e-12
4.772002996e-12
4.649614094e-12
4.530173784e-12
4.413616421e-12
4.299877799e-12
4.188895119e-12
4.080606974e-12
3.974953331e-12
3.871875507e-12
3.771316162e-12
3.673219266e-12
3.577530101e-12
3.484195225e-12
3.393162483e-12
3.304380966e-12
3.217801027e-12
3.133374237e-12
3.051053403e-12
2.970792542e-12
2.892546873e-12
2.816272816e-12
2.741927983e-12
2.66947116e-12
2.598862322e-12
2.530062609e-12
2.463034342e-12
2.397741001e-12
2.334147248e-12
2.272218907e-12
2.211923464e-12
2.153228154e-12
2.096102858e-12
2.0405182e-12
1.98644608e-12
1.933859719e-12
1.882733823e-12
1.833044586e-12
1.784770006e-12
1.737889942e-12
1.692386524e-12
1.648244488e-12
1.605451592e-12
1.563998954e-12
1.523881151e-12
1.485095952e-12
1.447642551e-12
1.41151866e-12
1.37671158e-12
1.343189971e-12
1.310862822e-12
1.279595842e-12
1.249006014e-12
1.218630581e-12
1.187443088e-12
1.153854548e-12
1.115421112e-12
1.068694297e-12
5.756697e-13
5.821646057e-13
3.903377455e-13
2.597855522e-13
1.717214865e-13
1.124470921e-13
7.286038178e-14
4.666195521e-14
2.949686706e-14
1.837320014e-14
1.12510665e-14
6.751708322e-15
3.952015697e-15
2.240184555e-15
1.215110587e-15
6.168828936e-16
2.792167915e-16
9.722132505e-17
5.782430471e-18
-3.477778285e-17
-4.810614854e-17
-4.791059682e-17
-4.185428427e-17
-3.400734212e-17
-2.636489898e-17
-1.976845862e-17
-1.445195679e-17
-1.035587249e-17
-7.300779331e-18
-5.077920643e-18
-3.492212511e-18
-2.379174729e-18
-1.608370845e-18
-1.080576912e-18
-7.225873285e-19
-4.816633136e-19
-3.205349253e-19
-2.132811096e-19
-1.421147396e-19
-9.496862326e-20
-6.37344877e-20
-4.300772248e-20
-2.92087247e-20
-1.997831343e-20
-1.376639914e-20
-9.556354677e-21
-6.68053623e-21
-4.700003075e-21
-3.325500102e-21
-2.363854513e-21
-1.686519604e-21
-1.206604907e-21
-8.649322349e-22
-6.207654052e-22
-4.456615274e-22
-3.197859939e-22
-2.2934993e-22
-1.642920053e-22
-1.175174401e-22
-8.408515724e-23
-5.997253803e-23
-4.268168387e-23
-3.023965961e-23
-2.150337365e-23
-1.516341486e-23
-1.071217493e-23
-7.526255175e-24
-5.290223422e-24
-3.712879292e-24
-2.604839947e-24
-1.831511134e-24
-1.27756459e-24
-8.67935043e-25
-6.097410955e-25
-4.008150086e-25
-2.993092242e-25
-1.773317699e-25
-1.600801801e-25
-9.83314498e-26
-1.088959851e-25
-1.20086022e-26
-6.740549718e-26
-3.772059562e-26
-1.738500276e-26
-1.591643143e-26
-2.311387668e-26
-9.8457201e-27
-1.382087824e-26
-1.727989149e-26
-1.107920827e-26
3.247024042e-27
-1.074440348e-26
-3.533729416e-27
-7.615408629e-27
-2.573766735e-27
-5.013306323e-28
-2.555403926e-27
-2.080766718e-27
-6.362693746e-28
8.901947746e-29
-6.032450763e-28
1.870853938e-28
6.478198413e-28
-4.1525154e-28
-4.94097667e-28
-1.070524267e-27
-6.451702558e-28
-4.587285646e-28
1.508468332e-27
-7.269809769e-28
1.2779027e-28
4.037436879e-28
3.790133939e-29
5.716812367e-28
-3.260971252e-28
-1.999220634e-28
1.673201493e-28
-5.967169279e-29
3.558898627e-28
2.195181317e-28
5.837108033e-28
-7.279328237e-29
2.238314417e-28
9.123916852e-29
-6.894225553e-28
3.948317455e-28
-9.11328212e-29
-1.706171712e-28
-1.181413564e-29
-1.641065608e-28
-6.93269681e-29
6.271943122e-29
5.165689182e-28
3.417341733e-28
2.782303016e-28
2.717149304e-28
-3.822983467e-28
5.009878958e-28
1.680762529e-27
-8.708140802e-28
-2.548581371e-28
-2.823995558e-28
2.199220004e-28
9.07466649e-28
9.498038405e-28
1.64606086e-28
-5.453413082e-28
9.312810506e-28
6.807933739e-28
-1.423451265e-28
4.758825724e-28
-9.208030884e-28
-2.265859192e-27
-2.237192364e-28
-3.060211794e-28
6.661397449e-28
-2.998766341e-28
1.405015107e-27
1.158333424e-27
1.381933e-27
1.914250365e-27
2.350245056e-28
8.031323634e-28
7.008143354e-28
8.858744354e-28
-4.701417788e-28
-3.76145501e-28
-1.456061517e-28
-5.59997292e-28
1.153364482e-27
4.250486707e-28
-5.790243372e-29
-2.046068936e-28
-8.087540293e-28
-1.663722642e-28
5.218395695e-28
1.053956389e-27
4.421558822e-28
6.665931961e-28
1.105627951e-27
3.037183576e-28
1.312785123e-27
1.277870563e-27
9.537404103e-28
1.801095651e-27
-1.013823997e-28
4.226389382e-28
-1.132410175e-28
1.038551642e-27
2.077504522e-28
1.005397007e-27
1.673501029e-27
3.675412643e-28
8.827234552e-28
9.124378642e-28
2.78394132e-28
4.716616342e-28
2.588372782e-28
5.561881e-28
-3.57154045e-28
-1.048570383e-27
-1.14512144e-27
-7.87280139e-29
-2.632709843e-28
1.342503122e-28
3.763994417e-28
-5.56022559e-28
2.363941641e-28
1.107023669e-28
-2.915652673e-28
3.922945872e-28
3.314541861e-28
-5.897950666e-28
-7.140381742e-28
-4.040844651e-28
9.278484314e-28
-4.206408614e-28
6.268578094e-29
-2.792463797e-28
-2.847581115e-28
-1.68547759e-28
-7.15390639e-29
-4.820068021e-28
-1.47722116e-28
-2.823173251e-28
-2.8312005e-28
3.852337812e-28
-5.27785023e-28
1.237230919e-28
-3.820102314e-28
-1.983462014e-28
-3.251217542e-28
5.935111446e-28
-5.417408259e-28
-1.25327681e-27
2.785455141e-29
-1.904303482e-28
-8.980767372e-28
-8.961594799e-28
-8.931252623e-28
-1.350801202e-27
-7.123769223e-28
-1.23312301e-27
-1.683894849e-27
-9.839651264e-28
-2.828001262e-27
-1.754788652e-27
-2.126360479e-28
-1.051061113e-27
-6.745386567e-28
)
;

boundaryField
{
    inlet
    {
        type            calculated;
        value           uniform 0;
    }
    outlet
    {
        type            calculated;
        value           uniform -6.7021029e-28;
    }
    wall
    {
        type            empty;
    }
}


// ************************************************************************* //
