/*--------------------------------*- C++ -*----------------------------------*\
  =========                 |
  \\      /  F ield         | OpenFOAM: The Open Source CFD Toolbox
   \\    /   O peration     | Website:  https://openfoam.org
    \\  /    A nd           | Version:  7
     \\/     M anipulation  |
\*---------------------------------------------------------------------------*/
FoamFile
{
    version     2.0;
    format      ascii;
    class       volScalarField;
    location    "0.000558243009";
    object      ddt0(rho,CH3);
}
// * * * * * * * * * * * * * * * * * * * * * * * * * * * * * * * * * * * * * //

dimensions      [1 -3 -1 0 0 0 0];

internalField   nonuniform List<scalar> 
1500
(
5.516389275e-25
2.051728813e-25
2.868676582e-25
2.616055931e-25
1.918445711e-25
1.222840519e-25
6.987606481e-26
3.577756449e-26
1.512617811e-26
2.462479299e-27
-6.13069884e-27
-1.279371057e-26
-1.846617139e-26
-2.344687094e-26
-2.776507976e-26
-3.135805788e-26
-3.414823954e-26
-3.607546929e-26
-3.710555724e-26
-3.723409659e-26
-3.648297262e-26
-3.48988476e-26
-3.254872304e-26
-2.95140238e-26
-2.588972072e-26
-2.177816903e-26
-1.728596625e-26
-1.252191191e-26
-7.59321853e-27
-2.602109238e-27
2.353101868e-27
7.182560332e-27
1.180363454e-26
1.614171392e-26
2.013107921e-26
2.371251106e-26
2.683461103e-26
2.945228139e-26
3.152757805e-26
3.302849657e-26
3.393089315e-26
3.421728733e-26
3.387981489e-26
3.291995325e-26
3.134922099e-26
2.919004057e-26
2.647702799e-26
2.325476514e-26
1.957895236e-26
1.551532596e-26
1.113641083e-26
6.521851666e-27
1.755370573e-27
-3.076994055e-27
-7.889790512e-27
-1.259909729e-26
-1.712587317e-26
-2.13956977e-26
-2.534182782e-26
-2.890560543e-26
-3.203746578e-26
-3.469720583e-26
-3.685455829e-26
-3.848896231e-26
-3.959028124e-26
-4.015789777e-26
-4.019951119e-26
-3.973313273e-26
-3.878236976e-26
-3.73798958e-26
-3.556255686e-26
-3.337322552e-26
-3.085705128e-26
-2.806174103e-26
-2.503578184e-26
-2.182762446e-26
-1.848266621e-26
-1.504472192e-26
-1.155398311e-26
-8.046423952e-27
-4.554245293e-27
-1.104519366e-27
2.278969595e-27
5.576171084e-27
8.769991682e-27
1.184626722e-26
1.479209251e-26
1.759478523e-26
2.024302809e-26
2.272490516e-26
2.502853462e-26
2.713977833e-26
2.904576366e-26
3.073181083e-26
3.218292494e-26
3.338406279e-26
3.432101872e-26
3.498015876e-26
3.53497655e-26
3.541920509e-26
3.518180054e-26
3.463309064e-26
3.377141169e-26
3.259997636e-26
3.112475244e-26
2.935598718e-26
2.730727589e-26
2.499536769e-26
2.244081377e-26
1.966657732e-26
1.66971484e-26
1.355950742e-26
1.028141038e-26
6.891469324e-27
3.419236678e-27
-1.06688241e-28
-3.657286521e-27
-7.204029513e-27
-1.071936487e-26
-1.417599357e-26
-1.754770522e-26
-2.080874578e-26
-2.3934966e-26
-2.690295253e-26
-2.969103639e-26
-3.227814963e-26
-3.464595862e-26
-3.677800517e-26
-3.865872981e-26
-4.027701587e-26
-4.162357425e-26
-4.269177142e-26
-4.347824804e-26
-4.39822093e-26
-4.42064721e-26
-4.415554715e-26
-4.383710358e-26
-4.32613392e-26
-4.244013186e-26
-4.138719597e-26
-4.01177584e-26
-3.86488414e-26
-3.699854077e-26
-3.518543289e-26
-3.322996697e-26
-3.115293254e-26
-2.897624179e-26
-2.672267486e-26
-2.441511289e-26
-2.207720538e-26
-1.973296226e-26
-1.740525455e-26
-1.511780279e-26
-1.289202566e-26
-1.074782409e-26
-8.70275398e-27
-6.771260185e-27
-4.964466873e-27
-3.289149873e-27
-1.747468882e-27
-3.371845739e-28
9.494955973e-28
2.124059701e-27
3.202815739e-27
4.205176654e-27
5.153758738e-27
6.072468289e-27
6.985546334e-27
7.916953648e-27
8.888485798e-27
9.918979867e-27
1.102308996e-26
1.221026682e-26
1.348527114e-26
1.484607736e-26
1.628643627e-26
1.779418141e-26
1.935361489e-26
2.094473361e-26
2.254652405e-26
2.413717933e-26
2.569499631e-26
2.720092393e-26
2.863837782e-26
2.999494861e-26
3.126183976e-26
3.243463049e-26
3.351236197e-26
3.449759268e-26
3.539446351e-26
3.620838465e-26
3.694432623e-26
3.760593064e-26
3.819478614e-26
3.87096971e-26
3.914563552e-26
3.949469443e-26
3.9746072e-26
3.988663582e-26
3.990082499e-26
3.977335979e-26
3.948810427e-26
3.903093751e-26
3.838897056e-26
3.755197888e-26
3.651337496e-26
3.527183671e-26
3.38305984e-26
3.219893911e-26
3.039378379e-26
2.843937237e-26
2.636699462e-26
2.421592688e-26
2.203079495e-26
1.986045973e-26
1.775344323e-26
1.575448802e-26
1.38981984e-26
1.220502497e-26
1.067460094e-26
9.281584688e-27
7.974604846e-27
6.676619774e-27
5.28824965e-27
3.69799903e-27
1.794681217e-27
-5.172044768e-28
-3.296877909e-27
-6.549483373e-27
-1.020725349e-26
-1.411669313e-26
-1.80335754e-26
-2.162474806e-26
-2.448760988e-26
-2.617791342e-26
-2.625439762e-26
-2.433250627e-26
-2.014687055e-26
-1.3618045e-26
-4.911700173e-27
5.511208765e-27
1.68668414e-26
2.804473865e-26
3.764021148e-26
4.402247612e-26
4.543745145e-26
4.015005505e-26
2.66089875e-26
3.686281371e-27
-2.923720036e-26
-5.097373869e-26
-5.422002659e-26
-5.716272684e-26
-6.008173538e-26
-6.303297966e-26
-6.602090752e-26
-6.904525061e-26
-7.210655938e-26
-7.520588707e-26
-7.83436456e-26
-8.151974109e-26
-8.473388448e-26
-8.798579309e-26
-9.127487862e-26
-9.460053934e-26
-9.796231163e-26
-1.013596798e-25
-1.047922053e-25
-1.082594873e-25
-1.117610589e-25
-1.152964255e-25
-1.188651748e-25
-1.224667635e-25
-1.261007671e-25
-1.297667768e-25
-1.334641528e-25
-1.371925077e-25
-1.409513605e-25
-1.447402255e-25
-1.485585569e-25
-1.52406104e-25
-1.562820828e-25
-1.601861532e-25
-1.64117892e-25
-1.680768514e-25
-1.720626368e-25
-1.760747501e-25
-1.801128014e-25
-1.841764269e-25
-1.88265423e-25
-1.923793069e-25
-1.965181411e-25
-2.006810826e-25
-2.048683888e-25
-2.090797012e-25
-2.133150083e-25
-2.175741525e-25
-2.218571258e-25
-2.261640356e-25
-2.304949788e-25
-2.348499227e-25
-2.392294185e-25
-2.436336491e-25
-2.480630807e-25
-2.525181036e-25
-2.569993594e-25
-2.615076255e-25
-2.660437578e-25
-2.706087862e-25
-2.752037663e-25
-2.798295295e-25
-2.844878497e-25
-2.891801243e-25
-2.939079655e-25
-2.986733678e-25
-3.03478198e-25
-3.08324766e-25
-3.132155761e-25
-3.181530916e-25
-3.231402422e-25
-3.281804417e-25
-3.332766986e-25
-3.384330297e-25
-3.436527847e-25
-3.489405057e-25
-3.54300825e-25
-3.597383762e-25
-3.652584326e-25
-3.708665093e-25
-3.765684876e-25
-3.823706626e-25
-3.882797821e-25
-3.943027985e-25
-4.004473216e-25
-4.067214744e-25
-4.131333764e-25
-4.196923057e-25
-4.264076696e-25
-4.332892897e-25
-4.403480163e-25
-4.475946311e-25
-4.550409614e-25
-4.626992015e-25
-4.70582193e-25
-4.787038108e-25
-4.870780652e-25
-4.957198697e-25
-5.046446283e-25
-5.1386903e-25
-5.23409954e-25
-5.332851064e-25
-5.435129614e-25
-5.541132475e-25
-5.651055288e-25
-5.765109206e-25
-5.883515938e-25
-6.006496692e-25
-6.134288612e-25
-6.267132781e-25
-6.405284787e-25
-6.549000258e-25
-6.698553463e-25
-6.854216612e-25
-7.016280343e-25
-7.185037876e-25
-7.360793094e-25
-7.54385865e-25
-7.734559552e-25
-7.933218968e-25
-8.140178392e-25
-8.355781807e-25
-8.580381687e-25
-8.814341082e-25
-9.058027108e-25
-9.311815339e-25
-9.576085073e-25
-9.851226228e-25
-1.013762927e-24
-1.043569394e-24
-1.074582068e-24
-1.106841326e-24
-1.140388603e-24
-1.175265054e-24
-1.211512065e-24
-1.249170597e-24
-1.288282198e-24
-1.328888144e-24
-1.371030132e-24
-1.414748466e-24
-1.460084013e-24
-1.507076431e-24
-1.555764985e-24
-1.606188088e-24
-1.658384052e-24
-1.712388589e-24
-1.768238052e-24
-1.825965811e-24
-1.885605267e-24
-1.947186739e-24
-2.010740379e-24
-2.076293526e-24
-2.143871122e-24
-2.213496398e-24
-2.285190454e-24
-2.358970809e-24
-2.434853302e-24
-2.512850038e-24
-2.592970674e-24
-2.675221518e-24
-2.759604526e-24
-2.846119529e-24
-2.934761457e-24
-3.025521126e-24
-3.118386223e-24
-3.213340484e-24
-3.310361804e-24
-3.4094248e-24
-3.510498319e-24
-3.613547568e-24
-3.718531759e-24
-3.825405317e-24
-3.934117715e-24
-4.044614119e-24
-4.156832261e-24
-4.270705538e-24
-4.386163468e-24
-4.503127184e-24
-4.6215132e-24
-4.741233972e-24
-4.86219649e-24
-4.98429867e-24
-5.107436154e-24
-5.231499083e-24
-5.356371001e-24
-5.481930983e-24
-5.608051534e-24
-5.734601831e-24
-5.861444898e-24
-5.988440521e-24
-6.115443063e-24
-6.242301336e-24
-6.368862251e-24
-6.494967519e-24
-6.620456457e-24
-6.745163968e-24
-6.868920969e-24
-6.991560015e-24
-7.112905393e-24
-7.232785978e-24
-7.35102136e-24
-7.467439969e-24
-7.581861038e-24
-7.694108234e-24
-7.80400207e-24
-7.911368366e-24
-8.016033009e-24
-8.117817533e-24
-8.216557148e-24
-8.312082688e-24
-8.404228349e-24
-8.492836281e-24
-8.57775299e-24
-8.658824571e-24
-8.735908652e-24
-8.808870019e-24
-8.877579756e-24
-8.941914619e-24
-9.001758091e-24
-9.057014491e-24
-9.107587896e-24
-9.153401252e-24
-9.194376384e-24
-9.230456152e-24
-9.261600622e-24
-9.28776637e-24
-9.308947331e-24
-9.325136925e-24
-9.336346238e-24
-9.342608611e-24
-9.343972795e-24
-9.340504829e-24
-9.332284766e-24
-9.319430439e-24
-9.302046385e-24
-9.280292794e-24
-9.254332625e-24
-9.224364006e-24
-9.190587251e-24
-9.153248726e-24
-9.112614799e-24
-9.068974916e-24
-9.022644298e-24
-8.973972369e-24
-8.923322186e-24
-8.871101426e-24
-8.817741364e-24
-8.763717484e-24
-8.70952068e-24
-8.655674338e-24
-8.602736711e-24
-8.551329412e-24
-8.502065364e-24
-8.455640857e-24
-8.412754473e-24
-8.374174831e-24
-8.340689438e-24
-8.313167045e-24
-8.292584618e-24
-8.280515521e-24
-8.280506186e-24
-8.304110276e-24
-8.390689406e-24
-8.653869426e-24
-9.227359715e-24
-1.003390401e-23
-1.122926375e-23
-1.309774127e-23
-1.490499665e-23
-1.649149763e-23
-1.78068639e-23
-1.88166359e-23
-1.949123914e-23
-1.980250681e-23
-1.972199046e-23
-1.922328305e-23
-1.828619665e-23
-1.692430837e-23
-1.539951804e-23
-1.485793221e-23
-1.440943004e-23
-1.392696994e-23
-1.353332952e-23
-1.347844124e-23
-1.38063804e-23
-1.436159039e-23
-1.503208458e-23
-1.577887962e-23
-1.659258894e-23
-1.747325498e-23
-1.842364523e-23
-1.944753295e-23
-2.054895997e-23
-2.17323935e-23
-2.300248434e-23
-2.436397477e-23
-2.582210656e-23
-2.738237265e-23
-2.905052262e-23
-3.083275418e-23
-3.273558642e-23
-3.476608513e-23
-3.69317748e-23
-3.924048773e-23
-4.170086633e-23
-4.432233412e-23
-4.711470937e-23
-5.008870152e-23
-5.325622885e-23
-5.663014414e-23
-6.022444707e-23
-6.405425005e-23
-6.813672121e-23
-7.249139902e-23
-7.713871252e-23
-8.210192708e-23
-8.740861475e-23
-9.308805822e-23
-9.917585892e-23
-1.057102692e-22
-1.127377186e-22
-1.203093223e-22
-1.284876079e-22
-1.373441376e-22
-1.469617202e-22
-1.574375061e-22
-1.688928014e-22
-1.814629382e-22
-1.953127334e-22
-2.106403584e-22
-2.276862337e-22
-2.467284422e-22
-2.681128246e-22
-2.922505988e-22
-3.19644135e-22
-3.508959704e-22
-3.867388744e-22
-4.280670226e-22
-4.759514253e-22
-5.317132556e-22
-5.969547721e-22
-6.736226566e-22
-7.64096441e-22
-8.712815126e-22
-9.987075337e-22
-1.150735241e-21
-1.3326242e-21
-1.550837185e-21
-1.813273945e-21
-2.129632943e-21
-2.511727122e-21
-2.974008039e-21
-3.534286856e-21
-4.214285732e-21
-5.040507606e-21
-6.045676143e-21
-7.269642977e-21
-8.761693496e-21
-1.058182594e-20
-1.280393721e-20
-1.5518468e-20
-1.88368561e-20
-2.289603847e-20
-2.786409897e-20
-3.39479378e-20
-4.14020696e-20
-5.054081916e-20
-6.175030007e-20
-7.550673441e-20
-9.239979184e-20
-1.131548371e-19
-1.38676371e-19
-1.700748875e-19
-2.087391583e-19
-2.56388456e-19
-3.151525487e-19
-3.877146592e-19
-4.77391254e-19
-5.883706252e-19
-7.258558904e-19
-8.964724176e-19
-1.108483164e-18
-1.372456807e-18
-1.701735338e-18
-2.11341615e-18
-2.62929799e-18
-3.277496925e-18
-4.094287965e-18
-5.126791178e-18
-6.436845018e-18
-8.105101488e-18
-1.023904828e-17
-1.298150999e-17
-1.652438509e-17
-2.112760606e-17
-2.714533802e-17
-3.50643469e-17
-4.556626404e-17
-5.960466216e-17
-7.853220476e-17
-1.042974925e-16
-1.397332638e-16
-1.890141704e-16
-2.583778635e-16
-3.572817129e-16
-5.00287993e-16
-7.101901104e-16
-1.02329099e-15
-1.498487265e-15
-2.233213946e-15
-3.39204884e-15
-5.259100758e-15
-8.33600579e-15
-1.352856234e-14
-2.250639649e-14
-3.839623974e-14
-6.709317339e-14
-1.196218186e-13
-2.160002486e-13
-3.906404509e-13
-6.992342991e-13
-1.238956528e-12
-2.292694094e-12
-5.270062685e-12
-1.778363745e-11
-7.745897875e-11
-3.527153203e-10
-1.53637752e-09
-6.283524671e-09
-2.416627768e-08
-8.787094912e-08
-3.036182717e-07
-1.001020151e-06
-3.159146116e-06
-9.56692063e-06
-2.785352598e-05
-7.808236456e-05
-0.0002110200805
-0.0005503398038
-0.001386237917
-0.003374767082
-0.007944903351
-0.01809477799
-0.03988050385
-0.08506914268
-0.1756217145
-0.3508221635
-0.6778168339
-1.265377614
-2.28216848
-3.962389065
-6.64586401
-10.73051417
-16.6712297
-24.13260044
-33.0723215
-42.42424707
-50.13379031
-53.28443345
-48.61695576
-34.06658883
-9.274583386
22.93604351
57.09802918
90.67028149
115.9369917
142.4015556
167.3045748
192.7158854
215.7753503
239.4708019
258.9931749
272.1141022
280.4417731
286.4949618
288.4863402
286.1618439
278.9799525
266.7103503
249.9231755
231.7919542
210.5620019
190.0343738
169.7290462
149.936326
130.1935337
110.40263
91.25787466
73.8166366
59.4762487
46.56898169
35.52044817
26.38476018
19.30505972
13.22737192
8.091775783
3.667923479
-0.4642913315
-2.129834483
-3.182699116
-4.337625314
-4.87251876
-5.003185854
-4.885917104
-4.62518544
-4.288338388
-3.905826643
-3.525914235
-3.153597649
-2.799428835
-2.469558339
-2.167141097
-1.893297146
-1.647777785
-1.429439482
-1.236584652
-1.067210014
-0.9191685883
-0.7903008818
-0.6785136308
-0.5818305599
-0.498422239
-0.4266206946
-0.364923399
-0.3119898923
-0.2666337551
-0.2278117795
-0.1946116822
-0.1662393126
-0.1420060351
-0.1213166587
-0.1036581777
-0.08858945883
-0.07573192335
-0.06476121895
-0.05539984237
-0.04741065005
-0.04059118374
-0.03476873299
-0.02979605652
-0.02554768735
-0.02191675137
-0.01881223482
-0.01615664219
-0.01388399245
-0.01193810713
-0.01027114973
-0.008842380731
-0.007617097443
-0.006565731711
-0.005663082516
-0.004887663535
-0.004221148593
-0.003647900446
-0.003154570379
-0.002729758016
-0.002363722246
-0.002048135565
-0.001775875278
-0.001540845982
-0.001337828593
-0.001162351928
-0.001010583408
-0.0008792360089
-0.0007654890186
-0.0006669205036
-0.0005814497448
-0.0005072881368
-0.0004428972903
-0.0003869532611
-0.0003383159945
-0.0002960032107
-0.0002591680743
-0.0002270800895
-0.0001991087458
-0.0001747095118
-0.0001534118312
-0.0001348088323
-0.0001185484993
-0.0001043260944
-9.187765039e-05
-8.097437842e-05
-7.141786069e-05
-6.303591475e-05
-5.567903458e-05
-4.921732524e-05
-4.353786158e-05
-3.854241149e-05
-3.414547235e-05
-3.027257562e-05
-2.685882302e-05
-2.38476218e-05
-2.118959023e-05
-1.884161611e-05
-1.67660315e-05
-1.492990886e-05
-1.330444433e-05
-1.186442635e-05
-1.058777349e-05
-9.455133267e-06
-8.449534243e-06
-7.556083326e-06
-6.761702784e-06
-6.05490154e-06
-5.42557605e-06
-4.864836785e-06
-4.364857174e-06
-3.918741949e-06
-3.520412136e-06
-3.164504937e-06
-2.846286026e-06
-2.561573017e-06
-2.306668593e-06
-2.078302031e-06
-1.873577898e-06
-1.689931385e-06
-1.525088746e-06
-1.377032979e-06
-1.243973531e-06
-1.124319844e-06
-1.016658062e-06
-9.197303577e-07
-8.324170611e-07
-7.53720793e-07
-6.82752487e-07
-6.187190584e-07
-5.609126555e-07
-5.087009374e-07
-4.615188484e-07
-4.188608543e-07
-3.80274614e-07
-3.453549933e-07
-3.137389963e-07
-2.851011131e-07
-2.591493138e-07
-2.356215313e-07
-2.14282159e-07
-1.949195777e-07
-1.773435221e-07
-1.61382728e-07
-1.468830498e-07
-1.337055833e-07
-1.217252118e-07
-1.108290154e-07
-1.009152438e-07
-9.189204698e-08
-8.367649083e-08
-7.619363961e-08
-6.937575802e-08
-6.316163007e-08
-5.749587206e-08
-5.232833072e-08
-4.761365958e-08
-4.331076865e-08
-3.938244754e-08
-3.579493552e-08
-3.251763078e-08
-2.952282423e-08
-2.678531432e-08
-2.42822758e-08
-2.199295686e-08
-1.989851126e-08
-1.798182821e-08
-1.622735121e-08
-1.462092123e-08
-1.314967939e-08
-1.180195461e-08
-1.056708964e-08
-9.435364535e-09
-8.397980865e-09
-7.44691474e-09
-6.574807184e-09
-5.774992516e-09
-5.041367803e-09
-4.368413627e-09
-3.751042908e-09
-3.184637421e-09
-2.664977658e-09
-2.188223752e-09
-1.750871495e-09
-1.349677465e-09
-9.817164537e-10
-6.443043186e-10
-3.349735597e-10
-5.146307489e-11
2.082817145e-10
4.46124857e-10
6.637895753e-10
8.628761206e-10
1.044838419e-09
1.211006531e-09
1.362595046e-09
1.500709128e-09
1.626395275e-09
1.740594289e-09
1.844186767e-09
1.937961564e-09
2.022655736e-09
2.098951612e-09
2.167464741e-09
2.228768463e-09
2.28340171e-09
2.33184345e-09
2.374551396e-09
2.411937074e-09
2.444396984e-09
2.472278694e-09
2.495914894e-09
2.515601138e-09
2.531632337e-09
2.544267172e-09
2.553748229e-09
2.560298126e-09
2.564132006e-09
2.565430052e-09
2.564386187e-09
2.561167614e-09
2.555926044e-09
2.548809224e-09
2.539959995e-09
2.529505692e-09
2.51757074e-09
2.504251918e-09
2.4896585e-09
2.473888965e-09
2.457024971e-09
2.439161978e-09
2.420376108e-09
2.400741114e-09
2.380333949e-09
2.359209453e-09
2.337433078e-09
2.315060909e-09
2.292149257e-09
2.268751813e-09
2.244921062e-09
2.220695009e-09
2.196115278e-09
2.171222471e-09
2.14606797e-09
2.12067172e-09
2.095076582e-09
2.069308185e-09
2.043402336e-09
2.017378124e-09
1.991263185e-09
1.965078858e-09
1.938849964e-09
1.912604131e-09
1.886363012e-09
1.860141723e-09
1.833964069e-09
1.80785184e-09
1.781813073e-09
1.755862441e-09
1.730017986e-09
1.704286028e-09
1.678688032e-09
1.653231801e-09
1.627922335e-09
1.602773573e-09
1.577791874e-09
1.552989566e-09
1.528377014e-09
1.503959592e-09
1.479748067e-09
1.455744103e-09
1.431954038e-09
1.408384064e-09
1.385044854e-09
1.361936917e-09
1.339063914e-09
1.316428958e-09
1.294042912e-09
1.271902e-09
1.250006634e-09
1.228362766e-09
1.206971843e-09
1.185836558e-09
1.164959129e-09
1.144337721e-09
1.123980929e-09
1.103885238e-09
1.084048636e-09
1.064470839e-09
1.045154356e-09
1.026097719e-09
1.007305054e-09
9.887730348e-10
9.704971087e-10
9.524794455e-10
9.347207726e-10
9.172182691e-10
8.999735103e-10
8.829894129e-10
8.662573831e-10
8.497773503e-10
8.33548579e-10
8.17571486e-10
8.018402287e-10
7.863536685e-10
7.711105394e-10
7.561089748e-10
7.413455698e-10
7.268220442e-10
7.125349351e-10
6.984787834e-10
6.84658799e-10
6.710679119e-10
6.577028146e-10
6.445634115e-10
6.316442382e-10
6.189411918e-10
6.06458188e-10
5.941895534e-10
5.821323993e-10
5.702862476e-10
5.586436445e-10
5.472066347e-10
5.35969013e-10
5.249329868e-10
5.140936959e-10
5.034508819e-10
4.929959382e-10
4.82727534e-10
4.726460081e-10
4.627461123e-10
4.530294484e-10
4.43492485e-10
4.341317529e-10
4.249435195e-10
4.159247176e-10
4.070716293e-10
3.983841371e-10
3.898588163e-10
3.814920518e-10
3.732837015e-10
3.652298517e-10
3.573314518e-10
3.495837871e-10
3.419851694e-10
3.345324197e-10
3.272227477e-10
3.200541685e-10
3.130227699e-10
3.061279379e-10
2.993667521e-10
2.927383345e-10
2.862400096e-10
2.798727249e-10
2.736290296e-10
2.675046474e-10
2.615007903e-10
2.556144703e-10
2.498461048e-10
2.441932739e-10
2.386538452e-10
2.332227859e-10
2.278991117e-10
2.226817999e-10
2.175683438e-10
2.125583317e-10
2.07650839e-10
2.02841872e-10
1.981301443e-10
1.935121326e-10
1.889866661e-10
1.845540558e-10
1.802115002e-10
1.75958164e-10
1.717893655e-10
1.677059774e-10
1.637064035e-10
1.597884481e-10
1.55951529e-10
1.52194534e-10
1.485137054e-10
1.449085555e-10
1.413771225e-10
1.379183056e-10
1.345321083e-10
1.312149713e-10
1.279658713e-10
1.247825934e-10
1.216645305e-10
1.18611472e-10
1.15620456e-10
1.126917992e-10
1.098227654e-10
1.070146821e-10
1.042640687e-10
1.015717288e-10
9.893536252e-11
9.635167545e-11
9.382194069e-11
9.134401736e-11
8.891750628e-11
8.65409611e-11
8.421470923e-11
8.19357916e-11
7.970341157e-11
7.751837794e-11
7.537778762e-11
7.328319792e-11
7.123338309e-11
6.922694398e-11
6.726070844e-11
6.533359861e-11
6.344595001e-11
6.159820764e-11
5.978725441e-11
5.80132883e-11
5.627509195e-11
5.457318903e-11
5.290599351e-11
5.127360026e-11
4.967526263e-11
4.810989203e-11
4.657640925e-11
4.507400503e-11
4.360405829e-11
4.216385369e-11
4.075312888e-11
3.936985825e-11
3.80132898e-11
3.668414706e-11
3.538329642e-11
3.410916726e-11
3.286166846e-11
3.163749637e-11
3.043728921e-11
2.926180034e-11
2.810984394e-11
2.697996542e-11
2.587268959e-11
2.478779321e-11
2.372482304e-11
2.268355886e-11
2.166301976e-11
2.066250266e-11
1.968241993e-11
1.872223717e-11
1.777962057e-11
1.685634852e-11
1.595038403e-11
1.506183943e-11
1.418975626e-11
1.333525352e-11
1.249790321e-11
1.167645574e-11
1.087039183e-11
1.007979513e-11
9.30408154e-12
8.542941899e-12
7.796584606e-12
7.065921959e-12
6.349731523e-12
5.646743234e-12
4.95722619e-12
4.280588215e-12
3.616960975e-12
2.965133009e-12
2.324963309e-12
1.696846391e-12
1.080501122e-12
4.757986977e-13
-1.172070011e-13
-6.985205562e-13
-1.268801325e-12
-1.828039854e-12
-2.377405947e-12
-2.917361765e-12
-3.447641596e-12
-3.968344199e-12
-4.478684852e-12
-4.980265569e-12
-5.471343491e-12
-5.953110252e-12
-6.425443792e-12
-6.888213559e-12
-7.342878978e-12
-7.788736359e-12
-8.225373328e-12
-8.653168115e-12
-9.071887318e-12
-9.481538641e-12
-9.881857943e-12
-1.027285839e-11
-1.065368431e-11
-1.102583442e-11
-1.138925256e-11
-1.174417721e-11
-1.209113823e-11
-1.243138304e-11
-1.27646144e-11
-1.309786291e-11
-1.342745441e-11
-1.376575807e-11
-1.412114333e-11
-1.450169975e-11
-1.488818838e-11
-1.798957671e-11
-1.793357013e-11
-1.902577884e-11
-1.963885666e-11
-1.988165187e-11
-1.985698498e-11
-1.961964626e-11
-1.921852935e-11
-1.869589009e-11
-1.80743845e-11
-1.737996381e-11
-1.664635922e-11
-1.588068136e-11
-1.510629307e-11
-1.433831737e-11
-1.359784346e-11
-1.289748986e-11
-1.224647423e-11
-1.166222102e-11
-1.115588979e-11
-1.073915663e-11
-1.042037234e-11
-1.020911319e-11
-1.011156749e-11
-1.013673483e-11
-1.028810641e-11
-1.057061247e-11
-1.098681665e-11
-1.153808048e-11
-1.222449096e-11
-1.304446897e-11
-1.399516051e-11
-1.507196665e-11
-1.626864915e-11
-1.757778328e-11
-1.89900241e-11
-2.049416453e-11
-2.207776344e-11
-2.372669193e-11
-2.542551869e-11
-2.7157379e-11
-2.890418929e-11
-3.064702612e-11
-3.236599802e-11
-3.404075599e-11
-3.565089368e-11
-3.717573836e-11
-3.859551913e-11
-3.989079072e-11
-4.104342354e-11
-4.203691162e-11
-4.285676332e-11
-4.348992169e-11
-4.392684302e-11
-4.415984387e-11
-4.418510316e-11
-4.400025903e-11
-4.360733352e-11
-4.301136871e-11
-4.22195302e-11
-4.1242358e-11
-4.009270887e-11
-3.878561677e-11
-3.733846972e-11
-3.576944643e-11
-3.409843273e-11
-3.234571371e-11
-3.053194455e-11
-2.867756168e-11
-2.680251546e-11
-2.492582897e-11
-2.306540288e-11
-2.123760339e-11
-1.945719852e-11
-1.773705426e-11
-1.608813872e-11
-1.451938008e-11
-1.303798459e-11
-1.164877916e-11
-1.03551729e-11
-9.15847493e-12
-8.05887942e-12
-7.054697285e-12
-6.14332294e-12
-5.321173358e-12
-4.583709324e-12
-3.925769907e-12
-3.341881017e-12
-2.826156173e-12
-2.372724628e-12
-1.975662506e-12
-1.629244736e-12
-1.327916828e-12
-1.06651275e-12
-8.401757873e-13
-6.445023404e-13
-4.754945398e-13
-3.295863164e-13
-2.036467077e-13
-9.494606659e-14
-1.138779485e-15
7.977663788e-14
1.494917988e-13
2.094219164e-13
2.607545258e-13
3.044797013e-13
3.414304137e-13
3.723115055e-13
3.977368131e-13
4.182297753e-13
4.342842801e-13
4.463370083e-13
4.54807744e-13
4.600961319e-13
4.625814398e-13
4.626392464e-13
4.606215541e-13
4.568686387e-13
4.517007139e-13
4.454113558e-13
4.382698797e-13
4.305129001e-13
4.223418785e-13
4.139257425e-13
4.05393935e-13
3.968432394e-13
3.883329271e-13
3.798952555e-13
3.715310822e-13
3.632188459e-13
3.549188451e-13
3.465764282e-13
3.381302736e-13
3.295098335e-13
3.206502382e-13
3.114892133e-13
3.019709489e-13
2.920523497e-13
2.81699062e-13
2.708889017e-13
2.596155273e-13
2.478896711e-13
2.357209087e-13
2.231482023e-13
2.10202801e-13
1.969287194e-13
1.833872334e-13
1.696292804e-13
1.557132285e-13
1.416991871e-13
1.276464915e-13
1.136116802e-13
9.965202718e-14
8.582084059e-14
7.216936311e-14
5.874139353e-14
4.558108742e-14
3.272787547e-14
2.021823787e-14
8.083741715e-15
-3.640722131e-15
-1.492953564e-14
-2.57554654e-14
-3.609954801e-14
-4.593999267e-14
-5.525992802e-14
-6.404294982e-14
-7.228269514e-14
-7.997391686e-14
-8.710745023e-14
-9.369027522e-14
-9.972387804e-14
-1.052176781e-13
-1.101905217e-13
-1.146535165e-13
-1.186357965e-13
-1.221593074e-13
-1.252531924e-13
-1.279560219e-13
-1.303038167e-13
-1.323347766e-13
-1.34093248e-13
-1.356236612e-13
-1.369720036e-13
-1.381838477e-13
-1.393149222e-13
-1.404053135e-13
-1.415041588e-13
-1.426589797e-13
-1.439155249e-13
-1.453122492e-13
-1.468941261e-13
-1.48694829e-13
-1.50744937e-13
-1.530731302e-13
-1.557036343e-13
-1.58649905e-13
-1.619211999e-13
-1.655221431e-13
-1.69452343e-13
-1.736961824e-13
-1.782367007e-13
-1.830477408e-13
-1.880985721e-13
-1.933460395e-13
-1.987424245e-13
-2.042329953e-13
-2.097572226e-13
-2.152502766e-13
-2.206411876e-13
-2.258530504e-13
-2.308094883e-13
-2.354315924e-13
-2.39634841e-13
-2.433417815e-13
-2.464698208e-13
-2.489449786e-13
-2.506895806e-13
-2.516344292e-13
-2.51714625e-13
-2.508721467e-13
-2.490551295e-13
-2.46219878e-13
-2.42330575e-13
-2.373607085e-13
-2.312923865e-13
-2.241180265e-13
-2.158399359e-13
-2.064683978e-13
-1.960237389e-13
-1.845374509e-13
-1.720480491e-13
-1.586037185e-13
-1.442620579e-13
-1.290874558e-13
-1.131528067e-13
-9.653456099e-14
-7.932111031e-14
-6.160298908e-14
-4.347488939e-14
-2.504111993e-14
-6.400339243e-15
1.233858052e-14
3.106649791e-14
4.967925859e-14
6.80686072e-14
8.613467585e-14
1.037888018e-13
1.209653198e-13
1.376911155e-13
)
;

boundaryField
{
    inlet
    {
        type            calculated;
        value           uniform 0;
    }
    outlet
    {
        type            calculated;
        value           uniform 1.41223595e-13;
    }
    wall
    {
        type            empty;
    }
}


// ************************************************************************* //
