/*--------------------------------*- C++ -*----------------------------------*\
  =========                 |
  \\      /  F ield         | OpenFOAM: The Open Source CFD Toolbox
   \\    /   O peration     | Website:  https://openfoam.org
    \\  /    A nd           | Version:  7
     \\/     M anipulation  |
\*---------------------------------------------------------------------------*/
FoamFile
{
    version     2.0;
    format      ascii;
    class       volScalarField;
    location    "0.000558243009";
    object      ddt0(rho,NC3H7COCH2);
}
// * * * * * * * * * * * * * * * * * * * * * * * * * * * * * * * * * * * * * //

dimensions      [1 -3 -1 0 0 0 0];

internalField   nonuniform List<scalar> 
1500
(
-8.098179242e-13
-2.437366888e-12
-3.662186581e-12
-3.700439994e-12
-2.829258889e-12
-1.744635941e-12
-9.029086751e-13
-4.033907757e-13
-1.597627045e-13
-5.916569529e-14
-2.415982312e-14
-1.494470213e-14
-1.44773736e-14
-1.645889304e-14
-1.877669337e-14
-2.078248979e-14
-2.228455309e-14
-2.32278613e-14
-2.360216384e-14
-2.341593167e-14
-2.268928867e-14
-2.14516658e-14
-1.974048082e-14
-1.760002079e-14
-1.508035513e-14
-1.22362939e-14
-9.126438406e-15
-5.812362611e-15
-2.357930648e-15
1.171279161e-15
4.70850363e-15
8.186356434e-15
1.153750411e-14
1.469552604e-14
1.759599652e-14
2.017779596e-14
2.238462279e-14
2.416662017e-14
2.548203346e-14
2.629877183e-14
2.659574844e-14
2.636388247e-14
2.56066696e-14
2.4340259e-14
2.25930157e-14
2.040458762e-14
1.782453413e-14
1.491060549e-14
1.172678225e-14
8.341192097e-15
4.82402203e-15
1.245526413e-15
-2.325786565e-15
-5.824732758e-15
-9.190763193e-15
-1.236900199e-14
-1.531102153e-14
-1.797537919e-14
-2.032794578e-14
-2.234205518e-14
-2.399850055e-14
-2.5285394e-14
-2.619790169e-14
-2.673785589e-14
-2.691324689e-14
-2.673759372e-14
-2.622920102e-14
-2.541031549e-14
-2.430620574e-14
-2.29442008e-14
-2.135272984e-14
-1.956041185e-14
-1.759524435e-14
-1.548393638e-14
-1.325142208e-14
-1.092057579e-14
-8.512136536e-15
-6.044830208e-15
-3.535662957e-15
-1.000347328e-15
1.546189035e-15
4.089263433e-15
6.613919722e-15
9.10447948e-15
1.15441998e-14
1.391506652e-14
1.619773764e-14
1.837164106e-14
2.041521935e-14
2.230630405e-14
2.402259602e-14
2.554222234e-14
2.684433807e-14
2.790973936e-14
2.872145672e-14
2.926529666e-14
2.953030716e-14
2.950914317e-14
2.919831741e-14
2.85983258e-14
2.77136451e-14
2.655260791e-14
2.512716626e-14
2.345256207e-14
2.154692755e-14
1.943084112e-14
1.712686616e-14
1.46590979e-14
1.20527393e-14
9.333722709e-15
6.528386218e-15
3.66320578e-15
7.645792066e-16
-2.141350592e-15
-5.028846058e-15
-7.872717099e-15
-1.064846904e-14
-1.333246961e-14
-1.590214239e-14
-1.833618793e-14
-2.061482819e-14
-2.272006369e-14
-2.463593003e-14
-2.634873641e-14
-2.784726934e-14
-2.912294684e-14
-3.016991261e-14
-3.098506343e-14
-3.156801104e-14
-3.192098335e-14
-3.204867554e-14
-3.195806568e-14
-3.165820985e-14
-3.116003208e-14
-3.04761217e-14
-2.962054727e-14
-2.86086894e-14
-2.745709199e-14
-2.618332223e-14
-2.480582902e-14
-2.334378321e-14
-2.181688381e-14
-2.024511571e-14
-1.864844563e-14
-1.704645257e-14
-1.545789238e-14
-1.390020668e-14
-1.238899406e-14
-1.093747039e-14
-9.555949849e-15
-8.251384048e-15
-7.02699763e-15
-5.882058064e-15
-4.81180882e-15
-3.807592698e-15
-2.857174156e-15
-1.945264306e-15
-1.054229352e-15
-1.649585472e-16
7.421544848e-16
1.686166235e-15
2.684536883e-15
3.752145569e-15
4.900432277e-15
6.136722754e-15
7.463787814e-15
8.879666849e-15
1.037777444e-14
1.194728466e-14
1.357376865e-14
1.524004104e-14
1.692715318e-14
1.861545709e-14
2.028566066e-14
2.191978999e-14
2.350198251e-14
2.501905207e-14
2.64607823e-14
2.781993297e-14
2.909196814e-14
3.027454485e-14
3.136682024e-14
3.236865464e-14
3.327979772e-14
3.409914395e-14
3.482413557e-14
3.545037638e-14
3.597149104e-14
3.637924686e-14
3.666392094e-14
3.681487846e-14
3.682130674e-14
3.66730415e-14
3.63614183e-14
3.588008808e-14
3.522574095e-14
3.439869686e-14
3.340333149e-14
3.224831292e-14
3.094662483e-14
2.951536339e-14
2.797527935e-14
2.635004941e-14
2.46652653e-14
2.29471389e-14
2.122096442e-14
1.950940274e-14
1.783071992e-14
1.619715204e-14
1.461362302e-14
1.307706783e-14
1.157661144e-14
1.009480785e-14
8.610060863e-15
7.100201945e-15
5.547023828e-15
3.941372662e-15
2.288197964e-15
6.107873713e-16
-1.046677753e-15
-2.619120152e-15
-4.023863165e-15
-5.167712736e-15
-5.95790676e-15
-6.316498553e-15
-6.197153785e-15
-5.602737361e-15
-4.601531592e-15
-3.339545607e-15
-2.046223158e-15
-1.031013545e-15
-6.687721459e-16
-1.372842896e-15
-3.555871961e-15
-7.579892524e-15
-1.369884164e-14
-2.199828154e-14
-3.233853166e-14
-4.430844753e-14
-5.719755875e-14
-6.999401099e-14
-8.1414795e-14
-8.997300066e-14
-9.40858043e-14
-9.222523115e-14
-8.312310614e-14
-6.602864207e-14
-4.105063181e-14
-9.267317646e-15
2.788670272e-14
5.097366142e-14
5.378305794e-14
5.641579032e-14
5.901169781e-14
6.159964012e-14
6.418220093e-14
6.675401881e-14
6.931162119e-14
7.185208403e-14
7.437342941e-14
7.687385775e-14
7.935131454e-14
8.180372779e-14
8.422863193e-14
8.662353109e-14
8.898595365e-14
9.131319879e-14
9.360254151e-14
9.585116521e-14
9.805623967e-14
1.002147842e-13
1.02323599e-13
1.043795716e-13
1.06379356e-13
1.083196758e-13
1.101967532e-13
1.120070714e-13
1.137467359e-13
1.154119528e-13
1.169984553e-13
1.185021471e-13
1.199185211e-13
1.212430545e-13
1.224710378e-13
1.235973941e-13
1.246170727e-13
1.255247443e-13
1.263147373e-13
1.269812936e-13
1.275183812e-13
1.279196379e-13
1.281784462e-13
1.282878634e-13
1.282407603e-13
1.280294945e-13
1.276461173e-13
1.270824173e-13
1.263296354e-13
1.253785648e-13
1.242196898e-13
1.228428309e-13
1.212374019e-13
1.193921155e-13
1.172952583e-13
1.149343522e-13
1.122962417e-13
1.09367012e-13
1.061319673e-13
1.025756107e-13
9.868151783e-14
9.443216477e-14
8.98091781e-14
8.479285839e-14
7.93624776e-14
7.349585072e-14
6.716960842e-14
6.035869161e-14
5.303651464e-14
4.517487547e-14
3.67435389e-14
2.771048481e-14
1.804150148e-14
7.700206818e-15
-3.352421367e-15
-1.515769611e-14
-2.776002763e-14
-4.120649225e-14
-5.554755404e-14
-7.083694837e-14
-8.713215696e-14
-1.04494457e-13
-1.229892768e-13
-1.426865981e-13
-1.636607878e-13
-1.859916713e-13
-2.097640586e-13
-2.350687426e-13
-2.620024124e-13
-2.906681557e-13
-3.21176082e-13
-3.536434744e-13
-3.881952956e-13
-4.24964764e-13
-4.640936748e-13
-5.057329971e-13
-5.500434532e-13
-5.971958181e-13
-6.473718004e-13
-7.007643953e-13
-7.575786089e-13
-8.1803205e-13
-8.82355437e-13
-9.507936343e-13
-1.023605763e-12
-1.101066492e-12
-1.183466368e-12
-1.271112485e-12
-1.364329576e-12
-1.463460489e-12
-1.568866954e-12
-1.680930441e-12
-1.800052876e-12
-1.926657294e-12
-2.061188855e-12
-2.204115335e-12
-2.35592809e-12
-2.517142509e-12
-2.688299275e-12
-2.869964313e-12
-3.06273011e-12
-3.267216024e-12
-3.484069066e-12
-3.713964381e-12
-3.957605784e-12
-4.215726425e-12
-4.489088812e-12
-4.778485784e-12
-5.084740214e-12
-5.408705783e-12
-5.751266718e-12
-6.113338112e-12
-6.495865926e-12
-6.89982677e-12
-7.326227943e-12
-7.77610675e-12
-8.250530332e-12
-8.750595344e-12
-9.277426856e-12
-9.832177903e-12
-1.041602864e-11
-1.103018485e-11
-1.167587731e-11
-1.235436008e-11
-1.306690943e-11
-1.381482169e-11
-1.459941206e-11
-1.542201213e-11
-1.628396832e-11
-1.718663943e-11
-1.813139413e-11
-1.911960869e-11
-2.015266401e-11
-2.123194324e-11
-2.235882825e-11
-2.353469704e-11
-2.476092008e-11
-2.60388572e-11
-2.736985415e-11
-2.875523863e-11
-3.019631702e-11
-3.169437037e-11
-3.32506504e-11
-3.486637601e-11
-3.654272849e-11
-3.828084823e-11
-4.008183042e-11
-4.194672044e-11
-4.387651052e-11
-4.587213504e-11
-4.793446679e-11
-5.006431301e-11
-5.226241085e-11
-5.452942443e-11
-5.686594035e-11
-5.927246419e-11
-6.174941715e-11
-6.429713281e-11
-6.691585342e-11
-6.960572742e-11
-7.236680676e-11
-7.51990436e-11
-7.810228889e-11
-8.107628994e-11
-8.412068864e-11
-8.723501985e-11
-9.041871101e-11
-9.367108021e-11
-9.699133684e-11
-1.003785805e-10
-1.038318019e-10
-1.073498835e-10
-1.109315998e-10
-1.145756196e-10
-1.182805071e-10
-1.220447247e-10
-1.258666355e-10
-1.297445057e-10
-1.336765087e-10
-1.376607292e-10
-1.416951667e-10
-1.457777404e-10
-1.499062952e-10
-1.540786057e-10
-1.582923842e-10
-1.625452845e-10
-1.66834911e-10
-1.711588249e-10
-1.755145514e-10
-1.79899588e-10
-1.843114137e-10
-1.887474953e-10
-1.932053002e-10
-1.976823013e-10
-2.021759912e-10
-2.06683889e-10
-2.112035521e-10
-2.157325884e-10
-2.202686649e-10
-2.248095206e-10
-2.29352978e-10
-2.338969562e-10
-2.384394825e-10
-2.429787048e-10
-2.475129061e-10
-2.520405177e-10
-2.565601325e-10
-2.610705194e-10
-2.655706391e-10
-2.700596585e-10
-2.745369645e-10
-2.790021831e-10
-2.834551944e-10
-2.878961477e-10
-2.923254821e-10
-2.967439406e-10
-3.011525917e-10
-3.055528463e-10
-3.099464778e-10
-3.14335643e-10
-3.18722901e-10
-3.231112349e-10
-3.275040754e-10
-3.319053225e-10
-3.363193677e-10
-3.407511197e-10
-3.452060304e-10
-3.496901171e-10
-3.542099907e-10
-3.587728869e-10
-3.633866862e-10
-3.6805995e-10
-3.728019492e-10
-3.776226915e-10
-3.825329556e-10
-3.875443245e-10
-3.92669218e-10
-3.979209239e-10
-4.033136398e-10
-4.088625003e-10
-4.145836102e-10
-4.204940762e-10
-4.266119124e-10
-4.329573313e-10
-4.394950034e-10
-4.463075574e-10
-4.534594096e-10
-4.61045527e-10
-4.689421458e-10
-4.77174624e-10
-4.857710496e-10
-4.947608202e-10
-5.041749817e-10
-5.140462137e-10
-5.244088908e-10
-5.352991605e-10
-5.467549898e-10
-5.588159845e-10
-5.715396595e-10
-5.851986519e-10
-5.996252707e-10
-6.148646628e-10
-6.309669674e-10
-6.479263714e-10
-6.658069805e-10
-6.847032784e-10
-7.046718103e-10
-7.257711665e-10
-7.480624455e-10
-7.716090919e-10
-7.964769108e-10
-8.22734139e-10
-8.504515031e-10
-8.797022828e-10
-9.105624053e-10
-9.431104949e-10
-9.774279699e-10
-1.013599128e-09
-1.051711223e-09
-1.091854573e-09
-1.134122667e-09
-1.178612267e-09
-1.225423542e-09
-1.274660188e-09
-1.32642959e-09
-1.380842956e-09
-1.438015504e-09
-1.498066634e-09
-1.561120127e-09
-1.627304369e-09
-1.696752572e-09
-1.769603036e-09
-1.845999414e-09
-1.926091009e-09
-2.010033085e-09
-2.097987222e-09
-2.190121665e-09
-2.286611732e-09
-2.387640234e-09
-2.493397924e-09
-2.604084004e-09
-2.719906617e-09
-2.841083449e-09
-2.967842305e-09
-3.100421787e-09
-3.239071971e-09
-3.384055214e-09
-3.535646958e-09
-3.694136678e-09
-3.859828885e-09
-4.033044288e-09
-4.214121088e-09
-4.40341648e-09
-4.601308379e-09
-4.80819748e-09
-5.024509741e-09
-5.250699356e-09
-5.487252478e-09
-5.734691837e-09
-5.993582553e-09
-6.264539624e-09
-6.54823739e-09
-6.845421961e-09
-7.156927214e-09
-7.483695761e-09
-7.826806413e-09
-8.187510208e-09
-8.56727788e-09
-8.967862399e-09
-9.391381524e-09
-9.840426839e-09
-1.031820783e-08
-1.082874242e-08
-1.137710896e-08
-1.196977945e-08
-1.261506049e-08
-1.33236765e-08
-1.410954116e-08
-1.499077797e-08
-1.599106972e-08
-1.714144326e-08
-1.848262894e-08
-2.006818001e-08
-2.196859504e-08
-2.427676586e-08
-2.711517471e-08
-3.064540111e-08
-3.508067594e-08
-4.070245633e-08
-4.788230341e-08
-5.711075151e-08
-6.903539396e-08
-8.451111287e-08
-1.046663054e-07
-1.309901749e-07
-1.654477473e-07
-2.106313696e-07
-2.699601838e-07
-3.479426728e-07
-4.505220685e-07
-5.85530582e-07
-7.63286444e-07
-9.973782556e-07
-1.305694841e-06
-1.711776626e-06
-2.246587753e-06
-2.950838289e-06
-3.878024865e-06
-5.098408624e-06
-6.704214558e-06
-8.816420095e-06
-1.159360875e-05
-1.524350224e-05
-2.003796044e-05
-2.63324617e-05
-3.459135765e-05
-4.542055123e-05
-5.960968888e-05
-7.818650458e-05
-0.0001024866274
-0.0001342429786
-0.0001756998666
-0.0002297580368
-0.0003001582757
-0.0003917126632
-0.0005105942061
-0.00066469726
-0.0008640827478
-0.001121523739
-0.001453165857
-0.001879321558
-0.002425407161
-0.003123034402
-0.00401125562
-0.005137948601
-0.006561315491
-0.008351421692
-0.01059169915
-0.01338026224
-0.01683084985
-0.02107314184
-0.02625213757
-0.0325262258
-0.04006353144
-0.04903610447
-0.05961153395
-0.07194163683
-0.08614799973
-0.1023043227
-0.120415788
-0.1403959078
-0.1620416506
-0.1850079338
-0.2087828156
-0.232665134
-0.2557458155
-0.2768946838
-0.2947530716
-0.3077303488
-0.3140059479
-0.3115228744
-0.2979813039
-0.2708135014
-0.2271449963
-0.1637459229
-0.07708229427
0.03602521531
0.175626306
0.356493343
0.5524010071
0.9147606637
1.292913254
1.643395375
1.308120568
1.640280465
1.509953569
1.186591715
1.164969353
1.729819185
1.996405776
0.5473600699
-2.170262298
-4.726031443
-6.199022573
-7.751203216
-5.958919959
-6.538473526
-6.75993108
-6.749555672
-5.824914553
-5.231707621
-4.41255288
-3.503758535
-2.521526315
-1.795463077
-1.236500324
-0.8334995017
-0.5548659307
-0.3669815574
-0.2421923135
-0.1580520722
-0.1038385885
-0.06803805274
-0.04473168876
-0.0294443756
-0.01941013962
-0.01282098546
-0.0084965604
-0.005620548026
-0.003676658688
-0.002403583358
-0.001570017205
-0.001023501806
-0.0006667662583
-0.0004358288835
-0.0002864654883
-0.0001895887318
-0.0001264896728
-8.341013401e-05
-5.507786863e-05
-3.703225262e-05
-2.502378552e-05
-1.704622055e-05
-1.175414443e-05
-8.244065873e-06
-5.912063467e-06
-4.345497143e-06
-3.295396382e-06
-2.576790219e-06
-2.075980431e-06
-1.718790897e-06
-1.456942032e-06
-1.259055593e-06
-1.104735733e-06
-9.806970568e-07
-8.782444838e-07
-7.916479899e-07
-7.170678844e-07
-6.518957672e-07
-5.943171219e-07
-5.430328189e-07
-4.970819779e-07
-4.557291134e-07
-4.18392429e-07
-3.845976479e-07
-3.539483188e-07
-3.26106321e-07
-3.00778909e-07
-2.77709741e-07
-2.566726376e-07
-2.374669377e-07
-2.199139466e-07
-2.038541167e-07
-1.89144734e-07
-1.75657969e-07
-1.632792029e-07
-1.519055694e-07
-1.41444673e-07
-1.318134571e-07
-1.229371988e-07
-1.147486173e-07
-1.071870799e-07
-1.001978959e-07
-9.373168896e-08
-8.77438377e-08
-8.219397881e-08
-7.704556433e-08
-7.226546785e-08
-6.782363375e-08
-6.369276493e-08
-5.98480443e-08
-5.626688666e-08
-5.292871711e-08
-4.981477325e-08
-4.690792843e-08
-4.41925336e-08
-4.165427575e-08
-3.928005113e-08
-3.705785148e-08
-3.497666201e-08
-3.302636962e-08
-3.119768055e-08
-2.948204613e-08
-2.787159595e-08
-2.635907761e-08
-2.493780239e-08
-2.360159611e-08
-2.234475478e-08
-2.116200441e-08
-2.004846471e-08
-1.899961609e-08
-1.801126976e-08
-1.707954064e-08
-1.620082264e-08
-1.537176625e-08
-1.45892581e-08
-1.385040235e-08
-1.315250371e-08
-1.249305194e-08
-1.186970768e-08
-1.128028949e-08
-1.072276199e-08
-1.019522501e-08
-9.695903578e-09
-9.22313883e-09
-8.77537955e-09
-8.35117447e-09
-7.949165139e-09
-7.568079392e-09
-7.206725283e-09
-6.863985541e-09
-6.538812409e-09
-6.230222087e-09
-5.937293656e-09
-5.659159941e-09
-5.395006594e-09
-5.144068769e-09
-4.905627552e-09
-4.679006767e-09
-4.46357024e-09
-4.258719181e-09
-4.063889815e-09
-3.878551131e-09
-3.702202809e-09
-3.534373285e-09
-3.374617952e-09
-3.22251747e-09
-3.077676207e-09
-2.939720777e-09
-2.808298676e-09
-2.683077004e-09
-2.563741287e-09
-2.449994361e-09
-2.341555334e-09
-2.238158621e-09
-2.13955303e-09
-2.045500921e-09
-1.955777407e-09
-1.870169612e-09
-1.788475973e-09
-1.71050559e-09
-1.636077609e-09
-1.565020655e-09
-1.497172288e-09
-1.432378502e-09
-1.370493246e-09
-1.311377985e-09
-1.254901278e-09
-1.200938381e-09
-1.149370889e-09
-1.100086377e-09
-1.05297808e-09
-1.007944582e-09
-9.648895286e-10
-9.237213553e-10
-8.843530281e-10
-8.467018048e-10
-8.106890045e-10
-7.762397937e-10
-7.432829861e-10
-7.117508482e-10
-6.815789205e-10
-6.527058487e-10
-6.250732204e-10
-5.986254165e-10
-5.733094657e-10
-5.490749107e-10
-5.258736788e-10
-5.03659963e-10
-4.823901068e-10
-4.62022495e-10
-4.425174538e-10
-4.238371525e-10
-4.059455117e-10
-3.888081179e-10
-3.723921409e-10
-3.566662554e-10
-3.416005683e-10
-3.271665491e-10
-3.133369624e-10
-3.000858064e-10
-2.873882541e-10
-2.752205945e-10
-2.635601819e-10
-2.523853833e-10
-2.416755315e-10
-2.314108783e-10
-2.215725518e-10
-2.121425154e-10
-2.031035281e-10
-1.944391076e-10
-1.861334948e-10
-1.781716212e-10
-1.705390753e-10
-1.632220737e-10
-1.562074319e-10
-1.494825363e-10
-1.430353193e-10
-1.368542329e-10
-1.309282268e-10
-1.252467242e-10
-1.197996021e-10
-1.145771695e-10
-1.095701488e-10
-1.047696573e-10
-1.001671892e-10
-9.575459892e-11
-9.152408567e-11
-8.746817738e-11
-8.357971695e-11
-7.985184771e-11
-7.627800087e-11
-7.285188243e-11
-6.956746144e-11
-6.641895857e-11
-6.340083509e-11
-6.050778228e-11
-5.773471183e-11
-5.507674617e-11
-5.252920928e-11
-5.008761826e-11
-4.774767486e-11
-4.55052578e-11
-4.335641504e-11
-4.12973566e-11
-3.932444784e-11
-3.743420269e-11
-3.562327755e-11
-3.388846496e-11
-3.222668829e-11
-3.0634996e-11
-2.911055632e-11
-2.765065251e-11
-2.625267781e-11
-2.491413093e-11
-2.363261171e-11
-2.240581686e-11
-2.123153603e-11
-2.010764776e-11
-1.90321161e-11
-1.800298688e-11
-1.701838439e-11
-1.607650814e-11
-1.517562982e-11
-1.431409041e-11
-1.34902971e-11
-1.270272085e-11
-1.194989369e-11
-1.123040619e-11
-1.054290516e-11
-9.886091311e-12
-9.258717141e-12
-8.659584748e-12
-8.087543924e-12
-7.541490088e-12
-7.020362681e-12
-6.52314316e-12
-6.048853416e-12
-5.596554228e-12
-5.165343535e-12
-4.754355078e-12
-4.362756925e-12
-3.989750142e-12
-3.634567395e-12
-3.296471778e-12
-2.974755552e-12
-2.668739014e-12
-2.377769375e-12
-2.101219685e-12
-1.838487841e-12
-1.588995561e-12
-1.352187484e-12
-1.127530239e-12
-9.145116011e-13
-7.126396201e-13
-5.214418882e-13
-3.404646854e-13
-1.692723398e-13
-7.446451756e-15
1.454147583e-13
2.896971175e-13
4.257710733e-13
5.539923943e-13
6.747026146e-13
7.88229705e-13
8.94888547e-13
9.949814312e-13
1.088798589e-12
1.176618644e-12
1.258709053e-12
1.335326546e-12
1.406717566e-12
1.473118638e-12
1.534756768e-12
1.591849826e-12
1.64460687e-12
1.693228539e-12
1.737907307e-12
1.778827869e-12
1.816167415e-12
1.850095917e-12
1.880776413e-12
1.908365285e-12
1.933012503e-12
1.954861896e-12
1.974051368e-12
1.990713137e-12
2.004973952e-12
2.016955345e-12
2.026773742e-12
2.034540771e-12
2.040363367e-12
2.044344e-12
2.04658083e-12
2.047167882e-12
2.046195197e-12
2.043749008e-12
2.039911868e-12
2.034762808e-12
2.028377464e-12
2.02082822e-12
2.012184335e-12
2.002512054e-12
1.991874739e-12
1.98033298e-12
1.9679447e-12
1.954765261e-12
1.940847583e-12
1.9262422e-12
1.910997407e-12
1.895159316e-12
1.878770964e-12
1.861876416e-12
1.844514768e-12
1.826724349e-12
1.808541626e-12
1.790000769e-12
1.771134866e-12
1.751975592e-12
1.732553053e-12
1.712895887e-12
1.693031316e-12
1.672985221e-12
1.652782191e-12
1.632445596e-12
1.611997621e-12
1.59145933e-12
1.570850703e-12
1.550190688e-12
1.529497234e-12
1.508787343e-12
1.488077103e-12
1.467381732e-12
1.446715607e-12
1.426092306e-12
1.405524637e-12
1.385024675e-12
1.36460379e-12
1.34427268e-12
1.324041393e-12
1.303919368e-12
1.283915449e-12
1.264037914e-12
1.244294506e-12
1.224692448e-12
1.20523847e-12
1.185938834e-12
1.166799347e-12
1.147825391e-12
1.129021933e-12
1.11039355e-12
1.091944445e-12
1.073678465e-12
1.055599115e-12
1.037709576e-12
1.02001272e-12
1.002511127e-12
9.85207091e-13
9.681026458e-13
9.51199566e-13
9.344993875e-13
9.180034154e-13
9.017127367e-13
8.85628232e-13
8.697505847e-13
8.540802918e-13
8.38617673e-13
8.233628819e-13
8.083159113e-13
7.934766069e-13
7.788446693e-13
7.644196664e-13
7.502010397e-13
7.361881127e-13
7.22380094e-13
7.087760878e-13
6.953750982e-13
6.82176037e-13
6.691777267e-13
6.563789092e-13
6.437782497e-13
6.313743391e-13
6.191657057e-13
6.071508117e-13
5.953280643e-13
5.83695815e-13
5.722523676e-13
5.609959798e-13
5.499248669e-13
5.390372056e-13
5.283311392e-13
5.178047775e-13
5.074562021e-13
4.972834687e-13
4.872846108e-13
4.774576402e-13
4.678005515e-13
4.583113239e-13
4.48987923e-13
4.398283034e-13
4.308304114e-13
4.219921853e-13
4.133115588e-13
4.047864623e-13
3.964148239e-13
3.881945725e-13
3.801236371e-13
3.721999505e-13
3.644214494e-13
3.567860752e-13
3.49291777e-13
3.419365105e-13
3.347182413e-13
3.276349435e-13
3.206846033e-13
3.138652172e-13
3.071747951e-13
3.006113594e-13
2.941729473e-13
2.878576098e-13
2.816634135e-13
2.755884412e-13
2.696307914e-13
2.637885801e-13
2.580599406e-13
2.524430243e-13
2.469359999e-13
2.415370561e-13
2.362443996e-13
2.310562569e-13
2.259708737e-13
2.209865164e-13
2.161014706e-13
2.113140426e-13
2.066225595e-13
2.020253687e-13
1.975208392e-13
1.9310736e-13
1.887833424e-13
1.845472185e-13
1.803974417e-13
1.763324872e-13
1.723508518e-13
1.68451054e-13
1.646316342e-13
1.608911543e-13
1.572281987e-13
1.536413735e-13
1.501293071e-13
1.466906499e-13
1.433240747e-13
1.400282768e-13
1.368019736e-13
1.336439055e-13
1.305528351e-13
1.275275484e-13
1.245668537e-13
1.216695832e-13
1.188345917e-13
1.16060758e-13
1.133469845e-13
1.106921976e-13
1.080953481e-13
1.055554115e-13
1.030713881e-13
1.006423039e-13
9.826721056e-14
9.594518625e-14
9.367533572e-14
9.145679156e-14
8.928871397e-14
8.717029222e-14
8.510074455e-14
8.307933611e-14
8.110531257e-14
7.917800119e-14
7.729674438e-14
7.54609174e-14
7.366992871e-14
7.192322367e-14
7.022029446e-14
6.856066553e-14
6.694390452e-14
6.536963446e-14
6.383754669e-14
6.234742265e-14
6.089916477e-14
5.949283797e-14
5.812872623e-14
5.680737792e-14
5.552965745e-14
5.429664367e-14
5.310957835e-14
5.196865974e-14
5.087368831e-14
4.981654372e-14
4.878596115e-14
4.774800235e-14
4.664093483e-14
4.535576365e-14
4.371742091e-14
2.510344262e-14
2.406213525e-14
1.670522333e-14
1.145277448e-14
7.77860015e-15
5.232317726e-15
3.485018075e-15
2.297494748e-15
1.498262053e-15
9.657517362e-16
6.146635425e-16
3.857465835e-16
2.38255862e-16
1.444539901e-16
8.565165315e-17
4.93885713e-17
2.744851735e-17
1.447655198e-17
7.025971648e-18
2.908405146e-18
7.553991321e-19
-2.740534436e-19
-6.863928456e-19
-7.791304612e-19
-7.216250065e-19
-6.06268341e-19
-4.804007305e-19
-3.658477036e-19
-2.706188427e-19
-1.957293647e-19
-1.390413527e-19
-9.732704099e-20
-6.729903958e-20
-4.606287328e-20
-3.126182198e-20
-2.107057328e-20
-1.412444858e-20
-9.430020264e-21
-6.279199676e-21
-4.175882649e-21
-2.777421958e-21
-1.849988833e-21
-1.235622609e-21
-8.285135297e-22
-5.582733183e-22
-3.783301731e-22
-2.579908438e-22
-1.770753416e-22
-1.223269695e-22
-8.503051766e-23
-5.944296549e-23
-4.176511569e-23
-2.947028679e-23
-2.086708109e-23
-1.481475944e-23
-1.053772915e-23
-7.504270015e-24
-5.346869838e-24
-3.809559016e-24
-2.712819039e-24
-1.929992341e-24
-1.371272603e-24
-9.727328984e-25
-6.887355766e-25
-4.866353786e-25
-3.43053943e-25
-2.412421195e-25
-1.69202472e-25
-1.183472257e-25
-8.253619987e-26
-5.738570002e-26
-3.97715826e-26
-2.747182174e-26
-1.890951401e-26
-1.296825052e-26
-8.859654488e-27
-6.02849689e-27
-4.084855739e-27
-2.755716346e-27
-1.85051807e-27
-1.236689179e-27
-8.223189986e-28
-5.439185932e-28
-3.577998398e-28
-2.340216231e-28
-1.52151765e-28
-9.831007205e-29
-6.311227762e-29
-4.024575531e-29
-2.548672085e-29
-1.602490638e-29
-1.000158312e-29
-6.195028887e-30
-3.807468803e-30
-2.321531483e-30
-1.404097303e-30
-8.422850387e-31
-5.011116554e-31
-2.956796497e-31
-1.730398662e-31
-1.004541665e-31
-5.786063053e-32
-3.307713511e-32
-1.877490788e-32
-1.058627685e-32
-5.932764388e-33
-3.306382825e-33
-1.833293373e-33
-1.011609434e-33
-5.554830362e-34
-3.03360183e-34
-1.645558764e-34
-8.845893678e-35
-4.695292633e-35
-2.447139844e-35
-1.241678383e-35
-6.04896804e-36
-2.759332588e-36
-1.116320299e-36
-3.382737768e-37
-2.130174976e-39
1.178003133e-37
1.392023235e-37
1.21304269e-37
9.227385033e-38
6.425012319e-38
4.147290159e-38
2.457450463e-38
1.27609075e-38
4.854758418e-39
-2.560838219e-40
-3.465384948e-39
-5.430512936e-39
-6.60728595e-39
-7.298160997e-39
-7.696843887e-39
-7.923712705e-39
-8.051613736e-39
-8.123576817e-39
-8.164454062e-39
-8.188296197e-39
-8.202886256e-39
-8.212451393e-39
-8.219245292e-39
-8.224450379e-39
-8.22868088e-39
-8.232257125e-39
-8.235351651e-39
-8.238064975e-39
-8.240463595e-39
-8.242598177e-39
-8.244511637e-39
-8.246242254e-39
-8.247824511e-39
-8.249289021e-39
-8.250662225e-39
-8.251966153e-39
-8.253218388e-39
-8.254432243e-39
-8.255617138e-39
-8.256779115e-39
-8.257921437e-39
-8.259045228e-39
-8.260150077e-39
-8.261234593e-39
-8.262296854e-39
-8.263334764e-39
-8.26434628e-39
-8.26532954e-39
-8.26628289e-39
-8.267204837e-39
-8.268093947e-39
-8.268948718e-39
-8.269767444e-39
-8.270548095e-39
-8.271288238e-39
-8.271984992e-39
-8.272635038e-39
-8.273234684e-39
-8.273779972e-39
-8.274266825e-39
-8.274691231e-39
-8.275049431e-39
-8.275338123e-39
-8.275554647e-39
-8.275697157e-39
-8.275764762e-39
-8.275757629e-39
-8.275677056e-39
-8.275525494e-39
-8.275306533e-39
-8.275024861e-39
-8.274686176e-39
-8.274297084e-39
-8.273864969e-39
-8.273397854e-39
-8.272904245e-39
-8.27239298e-39
-8.271873068e-39
-8.271353539e-39
-8.270843299e-39
-8.270350988e-39
-8.269884855e-39
-8.269452643e-39
-8.269061484e-39
-8.268717811e-39
-8.268427286e-39
-8.268194739e-39
-8.268024124e-39
-8.2679185e-39
-8.267880011e-39
-8.267909902e-39
-8.268008533e-39
-8.26817542e-39
-8.268409286e-39
-8.268708117e-39
-8.269069235e-39
-8.269489377e-39
-8.269964779e-39
-8.270491256e-39
-8.271064293e-39
-8.271679128e-39
-8.272330834e-39
-8.273014389e-39
-8.273724753e-39
-8.274456929e-39
-8.275206013e-39
-8.275967247e-39
-8.276736058e-39
-8.277508089e-39
-8.278279225e-39
-8.279045618e-39
-8.279803694e-39
-8.28055017e-39
-8.281282057e-39
-8.281996664e-39
-8.282691601e-39
-8.283364775e-39
-8.284014395e-39
-8.28463896e-39
-8.285237263e-39
-8.285808381e-39
-8.286351668e-39
-8.28686674e-39
-8.28735346e-39
-8.287811889e-39
-8.288242169e-39
-8.288643901e-39
-8.289012338e-39
-8.289312561e-39
)
;

boundaryField
{
    inlet
    {
        type            calculated;
        value           uniform 0;
    }
    outlet
    {
        type            calculated;
        value           uniform -8.28929116e-39;
    }
    wall
    {
        type            empty;
    }
}


// ************************************************************************* //
