/*--------------------------------*- C++ -*----------------------------------*\
  =========                 |
  \\      /  F ield         | OpenFOAM: The Open Source CFD Toolbox
   \\    /   O peration     | Website:  https://openfoam.org
    \\  /    A nd           | Version:  7
     \\/     M anipulation  |
\*---------------------------------------------------------------------------*/
FoamFile
{
    version     2.0;
    format      ascii;
    class       volScalarField;
    location    "0.000558243009";
    object      ddt0(rho,O2);
}
// * * * * * * * * * * * * * * * * * * * * * * * * * * * * * * * * * * * * * //

dimensions      [1 -3 -1 0 0 0 0];

internalField   nonuniform List<scalar> 
1500
(
-1815.0071
-5699.739052
-8871.211454
-9317.461337
-7421.358379
-4774.414352
-2581.275251
-1206.270551
-499.7511276
-191.8417602
-77.46093709
-43.43889897
-38.32945409
-42.03843096
-47.4992198
-52.45220857
-56.21358904
-58.58630305
-59.52890454
-59.058889
-57.22611458
-54.10461527
-49.78872445
-44.39013349
-38.03512421
-30.86193622
-23.01837161
-14.65972996
-5.947087073
2.954157796
11.87561689
20.64733099
29.09947394
37.06452223
44.3799836
50.89170438
56.45768288
60.952172
64.26985961
66.32980753
67.07883115
66.49402719
64.58421239
61.39011753
56.98328395
51.46371009
44.95639284
37.60698785
29.57686441
21.03785186
12.16697322
3.141421495
-5.866014437
-14.69092948
-23.18060928
-31.19664776
-38.61690262
-45.33684881
-51.27040681
-56.35032041
-60.52814681
-63.77390272
-66.07539651
-67.43724935
-67.8796142
-67.43658812
-66.15433854
-64.08897515
-61.30422965
-57.86903026
-53.85507997
-49.33456059
-44.37808647
-39.05302216
-33.42225566
-27.54347976
-21.46900172
-15.24605127
-8.917520773
-2.523039722
3.899741846
10.31379176
16.68138821
22.96298758
29.11636159
35.09607555
40.85334578
46.33628609
51.49052506
56.26015023
60.58891952
64.42166584
67.70581486
70.39293133
72.44021535
73.81186871
74.48026861
74.42688957
73.64293611
72.12965904
69.89834949
66.97002366
63.37482645
59.15120056
54.3448784
49.007762
43.19676003
36.97264453
30.39898147
23.54117653
16.46565868
9.239204623
1.928393886
-5.400836712
-12.68357295
-19.85628124
-26.85718201
-33.62667078
-40.10780619
-46.24686747
-51.9939712
-57.30371975
-62.13584828
-66.45582634
-70.23537169
-73.45283922
-76.09345821
-78.14940202
-79.61969132
-80.50994527
-80.83200587
-80.60347299
-79.84718747
-78.59070159
-76.86576769
-74.70786892
-72.15579774
-69.25128053
-66.0386247
-62.56436135
-58.8768425
-55.02575224
-51.06149581
-47.03443251
-42.99394381
-38.98733492
-35.05859663
-31.24707102
-27.58609073
-24.10166979
-20.81134126
-17.72323828
-14.8355133
-12.13616948
-9.603372054
-7.206260932
-4.906275012
-2.658939022
-0.416052457
1.871835073
4.252787264
6.770841466
9.463525341
12.35969239
15.47781931
18.82489465
22.39597335
26.17444592
30.13300762
34.23526646
38.43787821
42.69305119
46.95123004
51.16375679
55.2852985
59.27584702
63.10214479
66.73842446
70.16642488
73.37470582
76.35735787
79.11225521
81.63904553
83.93709754
86.00362287
87.83217038
89.41165223
90.72598874
91.75441565
92.47241029
92.85314985
92.86936302
92.49541385
91.70944912
90.49545548
88.84508488
86.75914433
84.24866994
81.33552402
78.05245358
74.44257795
70.55823392
66.45913797
62.20983665
57.87644063
53.52274601
49.2059073
44.97199439
40.85186882
36.85794941
32.98250571
29.19810907
25.46075785
21.71598292
17.90787156
13.99050211
9.94078704
5.771209828
1.540505744
-2.639892624
-6.605849772
-10.14884156
-13.03381744
-15.02681614
-15.93124334
-15.63023624
-14.13102079
-11.60581597
-8.422880764
-5.160909857
-2.600385109
-1.686753057
-3.462534865
-8.968491616
-19.11773029
-34.55072148
-55.4832669
-81.56306815
-111.753146
-144.2615459
-176.5360371
-205.3398248
-226.9189199
-237.2659248
-232.4716498
-209.1601377
-164.9479438
-98.99961326
-12.24920465
92.20626849
153.3166586
161.0639272
168.7856615
176.4833558
184.1833426
191.8977509
199.6260924
207.3694677
215.1260782
222.8939478
230.6706751
238.4532563
246.2389798
254.0244773
261.8065613
269.582301
277.3483563
285.1014909
292.8384106
300.5559708
308.2508425
315.9193506
323.5582583
331.1639704
338.733311
346.2620981
353.747082
361.18435
368.570551
375.9014665
383.1736537
390.3829999
397.5257405
404.598053
411.5956258
418.514678
425.3512203
432.1009257
438.7598086
445.323788
451.7885845
458.1499515
464.4035429
470.5453117
476.5707384
482.4754082
488.2551802
493.9055354
499.4218968
504.8000541
510.0353508
515.1234182
520.0595264
524.839378
529.4583634
533.9118966
538.1953333
542.3040523
546.233547
549.9792655
553.5363422
556.9004073
560.0665804
563.0304252
565.7870941
568.3322509
570.6610558
572.7688473
574.65121
576.3032387
577.7204968
578.8983519
579.8324094
580.5177404
580.9501916
581.1248228
581.0374808
580.6835092
580.0585977
579.158178
577.9779251
576.5135279
574.7603798
572.7147402
570.3718266
567.7278257
564.7782603
561.5191205
557.9465641
554.0563658
549.8445931
545.3074429
540.4409602
535.2414372
529.7051802
523.8283702
517.6076701
511.0394408
504.1203122
496.8468928
489.2158452
481.2242249
472.8685519
464.146218
455.0540046
445.5890323
435.7488818
425.5307261
414.9319873
403.9503089
392.5833107
380.8287104
368.6845917
356.1487913
343.219546
329.8949746
316.1737654
302.0538776
287.5343637
272.6138172
257.2912158
241.5655045
225.4358539
208.9016512
191.9620976
174.6171887
156.866292
138.7096159
120.1469408
101.1786467
81.80514697
62.02690151
41.84470528
21.25915037
0.271488693
-21.11687603
-42.90487061
-65.09072232
-87.67267338
-110.6490959
-134.0175346
-157.7757928
-181.9212436
-206.4514989
-231.3633531
-256.6540218
-282.3198653
-308.3575665
-334.7635671
-361.5337982
-388.6642827
-416.150484
-443.9881643
-472.1723853
-500.69836
-529.5607839
-558.7542482
-588.2733577
-618.1120517
-648.2643648
-678.7240669
-709.4845036
-740.5392559
-771.8809894
-803.5026254
-835.3970239
-867.556153
-899.9723695
-932.6374021
-965.5429571
-998.6806004
-1032.04118
-1065.615895
-1099.395433
-1133.370158
-1167.530248
-1201.865918
-1236.366702
-1271.02212
-1305.821692
-1340.754175
-1375.808447
-1410.973174
-1446.236662
-1481.586808
-1517.011761
-1552.498873
-1588.035764
-1623.609406
-1659.206759
-1694.814698
-1730.419475
-1766.007495
-1801.564602
-1837.076679
-1872.529385
-1907.907944
-1943.197531
-1978.383129
-2013.449461
-2048.380923
-2083.161958
-2117.77641
-2152.208628
-2186.441876
-2220.459791
-2254.245838
-2287.783005
-2321.054226
-2354.042506
-2386.730057
-2419.099808
-2451.133608
-2482.813884
-2514.122405
-2545.040865
-2575.551265
-2605.634994
-2635.273467
-2664.447819
-2693.139357
-2721.329174
-2748.998121
-2776.127044
-2802.696746
-2828.687923
-2854.081028
-2878.85671
-2902.995524
-2926.477587
-2949.283398
-2971.393435
-2992.78783
-3013.447074
-3033.351235
-3052.480682
-3070.815703
-3088.336585
-3105.023793
-3120.857698
-3135.818645
-3149.887219
-3163.044086
-3175.269845
-3186.545261
-3196.851443
-3206.169324
-3214.479892
-3221.764893
-3228.005464
-3233.18337
-3237.280699
-3240.279441
-3242.161837
-3242.910571
-3242.508592
-3240.938682
-3238.184539
-3234.229832
-3229.058386
-3222.655138
-3215.004283
-3206.090413
-3188.785078
-3170.608221
-3156.830934
-3156.374126
-3151.476054
-3142.066133
-3128.068519
-3109.388205
-3085.940051
-3057.633539
-3024.373879
-2986.066027
-2942.621779
-2893.925311
-2841.625948
-2808.410431
-2774.03812
-2738.633168
-2702.334114
-2660.099654
-2612.876125
-2564.00475
-2513.467363
-2461.24555
-2407.321764
-2351.679466
-2294.302117
-2235.174474
-2174.281876
-2111.609781
-2047.145385
-1980.875653
-1912.788616
-1842.873419
-1771.119475
-1697.517033
-1622.057442
-1544.732374
-1465.534751
-1384.457733
-1301.495996
-1216.644315
-1129.898811
-1041.256182
-950.7139286
-858.270663
-763.925447
-667.6786374
-569.5311869
-469.4851201
-367.54299
-263.7087645
-157.9868685
-50.3829063
59.09662503
170.4445372
283.652148
398.71057
515.6094053
634.3375786
754.8827012
877.2320807
1001.371322
1127.285509
1254.958447
1384.373316
1515.51207
1648.355723
1782.884246
1919.076695
2056.911237
2196.364839
2337.413753
2480.033158
2624.197203
2769.879471
2917.051851
3065.686303
3215.753197
3367.222373
3520.062876
3674.242759
3829.729493
3986.489831
4144.48988
4303.695188
4464.070724
4625.581092
4788.190564
4951.863
5116.562269
5282.252318
5448.89702
5616.460693
5784.908035
5954.204483
6124.31602
6295.210529
6466.856545
6639.224801
6812.287883
6986.021202
7160.40257
7335.413701
7511.040256
7687.272053
7864.104664
8041.539533
8219.584826
8398.256845
8577.580388
8757.590899
8938.334309
9119.870141
9302.271469
9485.628312
9670.047929
9855.657897
10042.6084
10231.07448
10421.25845
10613.39424
10807.7488
11004.62681
11204.37447
11407.38249
11614.09148
11824.99522
12040.64612
12261.65938
12488.71694
12722.57282
12964.05684
13214.07728
13473.62456
13743.77184
14025.67506
14320.56997
14629.76717
14954.6426
15296.6245
15657.17292
16037.75438
16439.80759
16864.64387
17313.6032
17787.68072
18287.64229
18813.88114
19366.30477
19944.25965
20546.19901
21169.80766
21811.66867
22467.15097
23130.26347
23793.53196
24447.90979
25082.74092
25685.78899
26243.34782
26740.44623
27161.1543
27488.99031
27707.42763
27800.46438
27753.25107
27552.72165
27188.19232
26651.89106
25939.32428
25049.5739
23985.34865
22752.90045
21361.75471
19824.38866
18155.68784
16372.57683
14493.60381
12538.71926
10529.0985
8486.648096
6432.63653
4385.215739
2246.063973
156.8126776
-2576.575226
-4824.781847
-6414.189876
-5816.955438
-8598.201083
-10699.38445
-12445.418
-14000.72792
-15435.35814
-16757.64782
-18092.83915
-19460.35064
-20857.21204
-22016.87118
-23879.82666
-20802.6843
-22528.10646
-24134.02389
-25551.51271
-24089.99388
-25083.24634
-25967.6709
-26682.22566
-24215.58959
-24425.49695
-24328.38435
-23958.51747
-23353.59121
-22550.48892
-21583.98292
-19666.93848
-18504.97617
-17104.07719
-15938.51572
-14855.00429
-13865.82246
-12972.26531
-12167.07996
-11313.01133
-10150.22827
-9092.475276
-8116.473751
-7188.193941
-6364.432085
-5741.244362
-5311.89002
-5038.304318
-4875.075463
-4352.421937
-3893.226724
-3679.022872
-3430.577142
-3173.346196
-2925.744446
-2697.716754
-2493.067314
-2304.654265
-2142.900359
-1998.355419
-1868.67602
-1751.770225
-1645.828508
-1549.342743
-1461.074259
-1380.008669
-1305.311398
-1236.29642
-1172.373951
-1113.044425
-1057.877394
-1006.496723
-958.5703393
-913.8015936
-871.9252965
-832.7023881
-795.9167139
-761.3727047
-728.8929618
-698.3163264
-669.4963328
-642.2997644
-616.6053522
-592.3026165
-569.2908204
-547.4780239
-526.7802334
-507.1206324
-488.4288845
-470.640514
-453.6963424
-437.5419853
-422.1274
-407.4064804
-393.3366943
-379.8787569
-366.9963383
-354.6558013
-342.8259669
-331.4778991
-320.5847179
-310.1214234
-300.0647428
-290.3929889
-281.0859319
-272.1246852
-263.4915998
-255.1701689
-247.144941
-239.4014399
-231.9260937
-224.7061662
-217.7296993
-210.9854546
-204.4628637
-198.1519799
-192.0434376
-186.1284092
-180.3985718
-174.8460701
-169.4634873
-164.2438162
-159.1804307
-154.2670632
-149.4977804
-144.8669618
-140.3692813
-135.9996877
-131.7533874
-127.6258301
-123.6126924
-119.709865
-115.9134403
-112.2196985
-108.6250993
-105.1262691
-101.7199926
-98.40320331
-95.17297517
-92.02651506
-88.96115439
-85.97434323
-83.0636428
-80.22658568
-77.4612058
-74.76520724
-72.1365935
-69.57337316
-67.07366541
-64.63566133
-62.2576272
-59.93789568
-57.67486719
-55.46700277
-53.31282252
-51.21090241
-49.15987255
-47.15841261
-45.20525164
-43.29916443
-41.43897003
-39.62352825
-37.85174041
-36.12254511
-34.43491724
-32.78786734
-31.18043857
-29.61170593
-28.08077516
-26.58678121
-25.12888644
-23.70628092
-22.31817884
-20.96382048
-19.64246882
-18.35340956
-17.09595051
-15.8694199
-14.67316621
-13.50655629
-12.36897727
-11.25983272
-10.1785433
-9.124546569
-8.097295972
-7.096259796
-6.120921341
-5.170778357
-4.245341689
-3.344135079
-2.466696058
-1.612573609
-0.7813284103
0.02746661293
0.8142287767
1.579363573
2.323266837
3.046324226
3.748912334
4.431397912
5.094138519
5.737484184
6.361775105
6.967344259
7.554516785
8.123610106
8.674933676
9.208790836
9.725477588
10.22528268
10.70848929
11.17537421
11.62620703
12.06125331
12.48077118
12.88501439
13.27423062
13.64866269
14.0085486
14.3541209
14.68560756
15.00323201
15.30721394
15.59776702
15.87510237
16.13942612
16.39094059
16.62984472
16.85633272
17.07059625
17.27282264
17.46319651
17.64189845
17.80910626
17.96499473
18.1097348
18.24349539
18.36644234
18.47873804
18.58054304
18.6720144
18.75330747
18.82457444
18.8859654
18.93762818
18.97970789
19.01234743
19.03568821
19.04986891
19.05502596
19.05129455
19.03880723
19.01769516
18.98808718
18.95011055
18.90389108
18.84955231
18.78721654
18.71700386
18.639034
18.55342393
18.46028953
18.35974573
18.25190512
18.13687946
18.01477924
17.8857134
17.74978971
17.60711431
17.45779304
17.30192959
17.13962679
16.97098656
16.79610964
16.6150957
16.42804263
16.23504868
16.03621005
15.83162214
15.62137962
15.40557619
15.18430453
14.95765621
14.72572236
14.48859275
14.24635729
13.99910369
13.74691989
13.489893
13.22810852
12.96165212
12.69060844
12.4150614
12.13509385
11.85078861
11.56222736
11.26949137
10.97266112
10.67181649
10.36703689
10.05840078
9.745986448
9.42987127
9.110132294
8.786845694
8.460087651
8.129933094
7.796457269
7.459734088
7.119837359
6.776840339
6.430816051
6.08183628
5.729973629
5.375298798
5.017883019
4.657796937
4.295110288
3.929892845
3.562213949
3.192142389
2.819746361
2.445094127
2.068253221
1.689290801
1.308273889
0.9252687242
0.5403420437
0.1535589958
-0.2350147959
-0.6253141122
-1.017274219
-1.410830851
-1.805919811
-2.202477569
-2.600440358
-2.999745156
-3.400329279
-3.80213048
-4.205085504
-4.609133761
-5.014212716
-5.42026158
-5.827219116
-6.235024585
-6.643617447
-7.052937805
-7.462925423
-7.873520943
-8.284664752
-8.696298025
-9.10836181
-9.52079737
-9.933546638
-10.34655158
-10.7597543
-11.17309728
-11.58652357
-11.99997543
-12.41339699
-12.82673123
-13.2399219
-13.65298693
-14.06572141
-14.47814529
-14.89020315
-15.30185524
-15.7130164
-16.12364826
-16.53369514
-16.94310396
-17.35182093
-17.75979257
-18.16696542
-18.57328703
-18.97870441
-19.38316542
-19.78661775
-20.18900962
-20.5902892
-20.99040551
-21.38930732
-21.78694413
-22.18326503
-22.57822007
-22.97175934
-23.36383333
-23.75439248
-24.14338799
-24.53077089
-24.91649318
-25.30050644
-25.68276287
-26.06321516
-26.4418162
-26.81851898
-27.19327732
-27.56604481
-27.93677603
-28.30542506
-28.67194735
-29.03629773
-29.39843226
-29.75830669
-30.11587748
-30.47110163
-30.82393616
-31.17433856
-31.52226734
-31.86768029
-32.21053666
-32.55079559
-32.88841683
-33.22336058
-33.55558743
-33.88505835
-34.21173501
-34.53557944
-34.85655394
-35.17462185
-35.48974605
-35.80189104
-36.11102142
-36.41710212
-36.72009833
-37.01997658
-37.31670344
-37.61024622
-37.90057252
-38.18765107
-38.47145049
-38.75194031
-39.02909132
-39.30287347
-39.57325886
-39.8402191
-40.10372733
-40.36375667
-40.62028089
-40.87327507
-41.12271466
-41.36857533
-41.61083408
-41.8494685
-42.08445682
-42.3157777
-42.5434111
-42.76733739
-42.98753768
-43.20399408
-43.41668939
-43.62560685
-43.83073115
-44.03204728
-44.22954117
-44.4231998
-44.61301034
-44.79896184
-44.98104325
-45.15924474
-45.33355766
-45.50397354
-45.67048556
-45.83308703
-45.99177297
-46.14653842
-46.29738014
-46.44429545
-46.5872826
-46.72634058
-46.86146968
-46.99267113
-47.11994662
-47.24329949
-47.36273371
-47.47825393
-47.58986588
-47.69757714
-47.80139488
-47.90132821
-47.9973867
-48.08958174
-48.17792431
-48.26242754
-48.34310543
-48.41997228
-48.49304428
-48.56233744
-48.62787034
-48.68966099
-48.74772928
-48.80209596
-48.85278257
-48.89981168
-48.94320675
-48.98299237
-49.0191942
-49.05183835
-49.08095238
-49.10656429
-49.12870355
-49.14740006
-49.16268486
-49.17458984
-49.18314759
-49.1883919
-49.19035671
-49.189078
-49.18459106
-49.17693335
-49.16614159
-49.15225485
-49.13531171
-49.11535192
-49.09241602
-49.0665451
-49.03778039
-49.00616475
-48.97174042
-48.93455144
-48.89464099
-48.85205403
-48.80683454
-48.75902787
-48.70860876
-48.65575998
-48.6004567
-48.54274157
-48.48265457
-48.42023329
-48.35549539
-48.28849531
-48.21923543
-48.14772177
-48.07394398
-47.99787531
-47.91946581
-47.83864065
-47.75530898
-47.66934004
-47.58063577
-47.48900974
-47.39460388
-47.29679276
-47.19829096
-47.0922549
-46.99660896
-46.88870954
-46.7895826
-46.71107267
-46.65363103
-46.53440313
-44.51236558
-33.28997266
-24.02333969
-15.32584624
-7.219150327
0.2633473769
7.104630816
13.2926407
18.82174274
23.69327817
27.91505238
31.5011381
34.47148426
36.85147304
38.67141404
39.96598508
40.77362536
41.13589001
41.09677495
40.7020213
39.99840751
39.03304363
37.85267287
36.5029984
35.0280422
33.46954941
31.8664513
30.25439278
28.66533987
27.12726789
25.66394446
24.29480125
23.03490592
21.89502297
20.88176732
19.9978377
19.24232512
18.61108173
18.09714036
17.69116785
17.38193961
17.15681991
17.00223427
16.9041208
16.84834945
16.82109962
16.80918904
16.80034911
16.7834441
16.74863404
16.68748315
16.59301725
16.45973496
16.28357924
16.06187482
15.79323945
15.47747497
15.11544469
14.70894329
14.26056345
13.77356405
13.25174294
12.69931652
12.12080796
11.52094495
10.90456729
10.27654409
9.641700617
9.00475334
8.370253546
7.742537961
7.125686096
6.523483673
5.939391803
5.376521425
4.837612944
4.325021105
3.840704689
3.386221483
2.962728327
2.570986238
2.211370536
1.883886008
1.5881866
1.323599585
1.089153529
0.8836097831
0.7054966904
0.5531459669
0.4247305009
0.3183028125
0.2318334798
0.163248745
0.1104666514
0.07143103103
0.04414279744
0.02668803316
0.01726247834
0.01419208322
0.01594945778
0.02116606873
0.02864021026
0.03734081487
0.04640730268
0.0551457309
0.06302158001
0.0696495986
0.07478114318
0.07828954587
0.08015399368
0.08044248941
0.07929439667
0.07690310085
0.0734992493
0.06933499825
0.06466965987
0.05975702585
0.05483461693
0.05011500652
0.04577928729
0.04197267256
0.03880215074
0.03633606176
0.0346053682
0.0336063872
0.03330469986
0.03363993681
0.03453114957
0.03588243794
0.03758859863
0.03954052471
0.04163014489
0.04375475044
0.04582057381
0.04774556362
0.04946130989
0.05091414203
0.05206545293
0.05289132482
0.05338156047
0.05353823524
0.05337391824
0.05290965396
0.05217285997
0.051195246
0.05001082633
0.04865415033
0.0471587569
0.04555594624
0.04387383635
0.04213674945
0.04036487803
0.03857422933
0.0367767952
0.03498090444
0.03319171473
0.03141179879
0.02964176725
0.02788089579
0.0261277267
0.02438060322
0.02263812601
0.02089952344
0.01916491111
0.01743546713
0.01571350845
0.01400248353
0.01230690495
0.01063221847
0.008984637698
0.007370948051
0.005798305948
0.004274026087
0.002805385885
0.001399435875
6.283672695e-05
-0.001198287296
-0.002378470534
-0.003473005692
-0.004478018574
-0.005390532706
-0.006208506663
-0.006930863438
-0.007557505462
-0.008089319376
-0.008528170926
-0.008876893351
-0.009139268022
-0.009319998253
-0.009424673116
-0.009459731697
-0.009432411146
-0.009350686988
-0.009223213191
-0.009059238777
-0.00886852386
-0.008661238715
-0.008447854893
-0.008239020614
-0.008045427999
-0.007877671536
-0.007746089899
-0.007660607638
-0.007630569981
-0.007664572757
-0.007770297347
-0.007954346622
-0.008222093982
-0.008577543134
-0.00902320702
-0.009560009218
-0.01018720727
-0.0109023521
-0.01170127052
-0.01257808863
-0.01352528509
-0.01453377811
-0.01559304737
-0.01669128429
-0.01781557094
-0.01895207961
-0.02008629484
-0.02120324558
-0.02228774567
-0.02332463863
-0.02429903473
-0.02519654351
-0.0260034887
-0.02670710267
-0.02729570159
-0.02775882898
-0.02808737358
-0.02827365446
-0.02831148072
-0.02819617996
-0.02792460371
-0.0274951143
-0.02690754882
-0.02616317048
-0.02526459721
-0.02421570537
-0.02302149749
-0.02168792446
-0.0202216451
-0.01862970634
-0.01691907265
-0.01509587146
-0.01316318601
-0.01111806521
-0.008938269496
)
;

boundaryField
{
    inlet
    {
        type            calculated;
        value           uniform 0;
    }
    outlet
    {
        type            calculated;
        value           uniform -0.007550140029;
    }
    wall
    {
        type            empty;
    }
}


// ************************************************************************* //
