/*--------------------------------*- C++ -*----------------------------------*\
  =========                 |
  \\      /  F ield         | OpenFOAM: The Open Source CFD Toolbox
   \\    /   O peration     | Website:  https://openfoam.org
    \\  /    A nd           | Version:  7
     \\/     M anipulation  |
\*---------------------------------------------------------------------------*/
FoamFile
{
    version     2.0;
    format      ascii;
    class       volScalarField;
    location    "0.000558243009";
    object      ddt0(rho,NC7KET);
}
// * * * * * * * * * * * * * * * * * * * * * * * * * * * * * * * * * * * * * //

dimensions      [1 -3 -1 0 0 0 0];

internalField   nonuniform List<scalar> 
1500
(
-2.800030268e-14
-8.366392018e-14
-1.249820861e-13
-1.254934707e-13
-9.530626655e-14
-5.835913055e-14
-2.998446228e-14
-1.329623417e-14
-5.226732129e-15
-1.924663263e-15
-7.885335413e-16
-4.964564796e-16
-4.87841733e-16
-5.573517741e-16
-6.366352853e-16
-7.048479469e-16
-7.558408868e-16
-7.878474775e-16
-8.005458019e-16
-7.942293716e-16
-7.695821642e-16
-7.276027502e-16
-6.695603785e-16
-5.969572505e-16
-5.114916926e-16
-4.150228292e-16
-3.095383828e-16
-1.971269053e-16
-7.995462952e-17
3.975406623e-17
1.597346139e-16
2.777013111e-16
3.913702442e-16
4.984884691e-16
5.968707011e-16
6.844438007e-16
7.592980521e-16
8.197423432e-16
8.64360378e-16
8.92063658e-16
9.021369277e-16
8.942721717e-16
8.68587961e-16
8.256320676e-16
7.663666147e-16
6.921364369e-16
6.046225581e-16
5.057838349e-16
3.977904453e-16
2.829532423e-16
1.636529283e-16
4.227248646e-17
-7.886432261e-17
-1.975464945e-16
-3.117202436e-16
-4.195242107e-16
-5.193157614e-16
-6.096891877e-16
-6.89486845e-16
-7.578042373e-16
-8.139898776e-16
-8.576405384e-16
-8.885922554e-16
-9.069071804e-16
-9.12856339e-16
-9.068982878e-16
-8.896539108e-16
-8.618778007e-16
-8.244270558e-16
-7.782286588e-16
-7.242469123e-16
-6.634525521e-16
-5.967952416e-16
-5.251809317e-16
-4.494553761e-16
-3.70394457e-16
-2.887016309e-16
-2.050120704e-16
-1.199026113e-16
-3.390621401e-17
5.247078386e-17
1.387303533e-16
2.243651913e-16
3.088434961e-16
3.915973565e-16
4.720157444e-16
5.494425902e-16
6.231801001e-16
6.92497059e-16
7.566415264e-16
8.148571282e-16
8.664019485e-16
9.105689382e-16
9.467067163e-16
9.74239685e-16
9.926864125e-16
1.001675411e-15
1.00095754e-15
9.904145162e-16
9.700631571e-16
9.400553141e-16
9.006736236e-16
8.523234914e-16
7.955219141e-16
7.308839265e-16
6.591075333e-16
5.809580749e-16
4.972528445e-16
4.088467126e-16
3.166192878e-16
2.214639442e-16
1.242787304e-16
2.595904245e-17
-7.260836565e-17
-1.705504933e-16
-2.670129058e-16
-3.611647589e-16
-4.522044596e-16
-5.393662303e-16
-6.219276061e-16
-6.992177268e-16
-7.706260615e-16
-8.356111073e-16
-8.937084799e-16
-9.445378246e-16
-9.878080462e-16
-1.023320502e-15
-1.050969933e-15
-1.070743168e-15
-1.082715778e-15
-1.087047022e-15
-1.083973589e-15
-1.073802658e-15
-1.056904765e-15
-1.033706932e-15
-1.004686358e-15
-9.703647412e-16
-9.313032426e-16
-8.880977314e-16
-8.413739818e-16
-7.917822589e-16
-7.399907388e-16
-6.866773012e-16
-6.325192031e-16
-5.781805527e-16
-5.242975375e-16
-4.714617653e-16
-4.202023333e-16
-3.709675143e-16
-3.241071604e-16
-2.798570649e-16
-2.383266068e-16
-1.994909384e-16
-1.631887204e-16
-1.291263081e-16
-9.688867681e-17
-6.595723731e-17
-3.573386199e-17
-5.57032579e-18
2.519840854e-17
5.721872527e-17
9.108286255e-17
1.272955143e-16
1.662447169e-16
2.081789534e-16
2.531922107e-16
3.012179844e-16
3.520329027e-16
4.052697547e-16
4.60439123e-16
5.169580904e-16
5.741839303e-16
6.314501945e-16
6.881025048e-16
7.435311992e-16
7.971982274e-16
8.486563233e-16
8.975589547e-16
9.436605361e-16
9.868072115e-16
1.02691951e-15
1.06396884e-15
1.097950467e-15
1.128855897e-15
1.156647635e-15
1.181238918e-15
1.202480634e-15
1.220156532e-15
1.233987366e-15
1.243643342e-15
1.24876373e-15
1.248981773e-15
1.243952705e-15
1.233382631e-15
1.217056196e-15
1.19486113e-15
1.166808287e-15
1.133046085e-15
1.093868543e-15
1.049716057e-15
1.001168522e-15
9.48929788e-16
8.938029566e-16
8.366560826e-16
7.783782586e-16
7.198274476e-16
6.617722945e-16
6.048323723e-16
5.494227239e-16
4.957103624e-16
4.435913257e-16
3.926967389e-16
3.424348441e-16
2.920731107e-16
2.40859596e-16
1.88176719e-16
1.337139883e-16
7.763928828e-17
2.074251929e-17
-3.547770936e-17
-8.88140203e-17
-1.36462066e-16
-1.752607625e-16
-2.020636737e-16
-2.142268949e-16
-2.101787918e-16
-1.900165419e-16
-1.560562405e-16
-1.132504284e-16
-6.938170179e-17
-3.494639689e-17
-2.265938505e-17
-4.654104575e-17
-1.205880918e-16
-2.570804714e-16
-4.646315798e-16
-7.461436351e-16
-1.096878751e-15
-1.502891093e-15
-1.940081605e-15
-2.374127084e-15
-2.761500644e-15
-3.051734083e-15
-3.191018446e-15
-3.127147921e-15
-2.816121751e-15
-2.230485541e-15
-1.371416436e-15
-2.758017302e-16
9.995660655e-16
1.792987333e-15
1.88851407e-15
1.979803405e-15
2.070177608e-15
2.160304875e-15
2.250216651e-15
2.339757532e-15
2.428853594e-15
2.517436928e-15
2.605454558e-15
2.692848789e-15
2.779549549e-15
2.865486388e-15
2.950576922e-15
3.034738942e-15
3.117891764e-15
3.199947261e-15
3.280816679e-15
3.360408333e-15
3.438630289e-15
3.515385754e-15
3.590570774e-15
3.664084653e-15
3.73581909e-15
3.805668488e-15
3.873510614e-15
3.939232516e-15
4.002708884e-15
4.063818334e-15
4.122424005e-15
4.178395447e-15
4.231588967e-15
4.281861086e-15
4.329062855e-15
4.373033767e-15
4.413615234e-15
4.45064033e-15
4.483931762e-15
4.513310661e-15
4.538590372e-15
4.559574686e-15
4.57606056e-15
4.587835916e-15
4.594684553e-15
4.596375284e-15
4.592669192e-15
4.583321361e-15
4.568071517e-15
4.546647694e-15
4.518771307e-15
4.484145459e-15
4.442464075e-15
4.393402316e-15
4.336626388e-15
4.27178255e-15
4.198500599e-15
4.116391671e-15
4.025048122e-15
3.924043492e-15
3.812928936e-15
3.691228121e-15
3.558446505e-15
3.414056022e-15
3.257506048e-15
3.088209823e-15
2.905554673e-15
2.70888592e-15
2.497513482e-15
2.270709959e-15
2.027697674e-15
1.767658292e-15
1.489720272e-15
1.192960862e-15
8.763914608e-16
5.389707682e-16
1.795787637e-16
-2.029673765e-16
-6.099364522e-16
-1.042678031e-15
-1.502637348e-15
-1.991355822e-15
-2.51048206e-15
-3.061784542e-15
-3.647145113e-15
-4.268594708e-15
-4.928296838e-15
-5.628581201e-15
-6.371940768e-15
-7.161049169e-15
-7.998782485e-15
-8.888225473e-15
-9.83269026e-15
-1.083573784e-14
-1.190119157e-14
-1.303316056e-14
-1.423606313e-14
-1.551464161e-14
-1.687399753e-14
-1.831960988e-14
-1.985736689e-14
-2.149359427e-14
-2.323508183e-14
-2.508912905e-14
-2.706356066e-14
-2.916678353e-14
-3.140781235e-14
-3.379630845e-14
-3.634263428e-14
-3.905788888e-14
-4.195395482e-14
-4.504355005e-14
-4.834027665e-14
-5.185866955e-14
-5.561425922e-14
-5.962361878e-14
-6.390442892e-14
-6.847552776e-14
-7.33569897e-14
-7.857016229e-14
-8.413775108e-14
-9.008387229e-14
-9.643412347e-14
-1.032156456e-13
-1.104571887e-13
-1.181891833e-13
-1.264437918e-13
-1.352549928e-13
-1.446586239e-13
-1.546924608e-13
-1.653962629e-13
-1.768118381e-13
-1.889830965e-13
-2.019560976e-13
-2.157791036e-13
-2.305026092e-13
-2.461793854e-13
-2.628645173e-13
-2.806154131e-13
-2.994918317e-13
-3.195558938e-13
-3.408720682e-13
-3.635071803e-13
-3.875303833e-13
-4.130131407e-13
-4.400291702e-13
-4.686544127e-13
-4.989669486e-13
-5.310469414e-13
-5.649765396e-13
-6.008397698e-13
-6.387224299e-13
-6.787119472e-13
-7.208972475e-13
-7.653685761e-13
-8.122173385e-13
-8.615358964e-13
-9.134173687e-13
-9.679554129e-13
-1.025243977e-12
-1.085377063e-12
-1.148448453e-12
-1.21455143e-12
-1.283778501e-12
-1.356221064e-12
-1.431969125e-12
-1.511110958e-12
-1.59373276e-12
-1.679918326e-12
-1.769748686e-12
-1.863301755e-12
-1.960651977e-12
-2.061869942e-12
-2.167022056e-12
-2.276170151e-12
-2.389371134e-12
-2.506676632e-12
-2.628132655e-12
-2.753779231e-12
-2.883650097e-12
-3.017772383e-12
-3.156166287e-12
-3.298844814e-12
-3.445813501e-12
-3.597070163e-12
-3.752604663e-12
-3.912398745e-12
-4.076425809e-12
-4.24465081e-12
-4.417030105e-12
-4.593511388e-12
-4.77403363e-12
-4.958527039e-12
-5.146913097e-12
-5.339104579e-12
-5.535005658e-12
-5.734512015e-12
-5.937510974e-12
-6.143881718e-12
-6.353495505e-12
-6.566215924e-12
-6.781899192e-12
-7.00039451e-12
-7.221544381e-12
-7.445185098e-12
-7.671147054e-12
-7.899255313e-12
-8.129330073e-12
-8.361187149e-12
-8.594638564e-12
-8.829493132e-12
-9.065556982e-12
-9.302634302e-12
-9.540527822e-12
-9.779039617e-12
-1.001797167e-11
-1.025712659e-11
-1.049630838e-11
-1.073532304e-11
-1.097397933e-11
-1.121208952e-11
-1.144947008e-11
-1.168594248e-11
-1.192133387e-11
-1.215547784e-11
-1.238821524e-11
-1.261939487e-11
-1.284887421e-11
-1.307652032e-11
-1.33022105e-11
-1.352583306e-11
-1.37472882e-11
-1.396648878e-11
-1.418336105e-11
-1.439784561e-11
-1.460989813e-11
-1.481949029e-11
-1.502661068e-11
-1.523126567e-11
-1.543348044e-11
-1.563329989e-11
-1.583078968e-11
-1.602603742e-11
-1.621915371e-11
-1.641027332e-11
-1.659955651e-11
-1.678719039e-11
-1.697339019e-11
-1.715840081e-11
-1.734249854e-11
-1.75259924e-11
-1.770922621e-11
-1.789258038e-11
-1.807647372e-11
-1.82613657e-11
-1.844775861e-11
-1.863619992e-11
-1.882728454e-11
-1.902165776e-11
-1.922001761e-11
-1.942311755e-11
-1.963176927e-11
-1.984684084e-11
-2.006930275e-11
-2.029762312e-11
-2.053568253e-11
-2.078653628e-11
-2.105465807e-11
-2.133453716e-11
-2.162753797e-11
-2.193516163e-11
-2.225899848e-11
-2.260074622e-11
-2.296221117e-11
-2.334531272e-11
-2.37520898e-11
-2.418470519e-11
-2.464544039e-11
-2.513745315e-11
-2.567367989e-11
-2.624715409e-11
-2.68606494e-11
-2.751718223e-11
-2.821732343e-11
-2.89648611e-11
-2.976498798e-11
-3.062126511e-11
-3.15374208e-11
-3.251736138e-11
-3.356516707e-11
-3.468509417e-11
-3.588157907e-11
-3.715924124e-11
-3.852288619e-11
-3.997750931e-11
-4.152829747e-11
-4.318063247e-11
-4.494009364e-11
-4.681245983e-11
-4.880371242e-11
-5.092003809e-11
-5.316783117e-11
-5.555369726e-11
-5.80844558e-11
-6.076714477e-11
-6.36090238e-11
-6.66175799e-11
-6.98005325e-11
-7.316583988e-11
-7.672170705e-11
-8.047659371e-11
-8.443922494e-11
-8.861860221e-11
-9.302401695e-11
-9.766506536e-11
-1.025516665e-10
-1.076940814e-10
-1.131029355e-10
-1.187892445e-10
-1.247644416e-10
-1.310404108e-10
-1.376295201e-10
-1.445446628e-10
-1.517992991e-10
-1.594075053e-10
-1.673840243e-10
-1.757443247e-10
-1.845046614e-10
-1.936821445e-10
-2.032948114e-10
-2.133617066e-10
-2.239029665e-10
-2.349399108e-10
-2.464951401e-10
-2.585926412e-10
-2.71257899e-10
-2.845180167e-10
-2.984018445e-10
-3.129401183e-10
-3.281656092e-10
-3.441132893e-10
-3.608205086e-10
-3.783272019e-10
-3.966761182e-10
-4.159130922e-10
-4.360873706e-10
-4.572520113e-10
-4.794643903e-10
-5.027868584e-10
-5.2728761e-10
-5.530418557e-10
-5.801334265e-10
-6.086569953e-10
-6.387211793e-10
-6.704528978e-10
-7.040035258e-10
-7.395576107e-10
-7.773452422e-10
-8.176596395e-10
-8.60882177e-10
-9.075180207e-10
-9.582468775e-10
-1.013995315e-09
-1.07603977e-09
-1.146153319e-09
-1.226814735e-09
-1.321506254e-09
-1.435137584e-09
-1.574649591e-09
-1.749873595e-09
-1.974754199e-09
-2.269089061e-09
-2.661003475e-09
-3.190469144e-09
-3.914306386e-09
-4.913292989e-09
-6.302263852e-09
-8.244454841e-09
-1.097186757e-08
-1.481417166e-08
-2.023970792e-08
-2.79136348e-08
-3.878034918e-08
-5.418026047e-08
-7.601515241e-08
-1.069822206e-07
-1.509051121e-07
-2.132018712e-07
-3.015459469e-07
-4.267992084e-07
-6.043277996e-07
-8.558562337e-07
-1.212077267e-06
-1.716321581e-06
-2.429711357e-06
-3.438388036e-06
-4.863633978e-06
-6.87602333e-06
-9.715169684e-06
-1.371722801e-05
-1.935310868e-05
-2.728144156e-05
-3.842177615e-05
-5.405542989e-05
-7.59639367e-05
-0.0001066183632
-0.0001494370331
-0.0002091346317
-0.0002921924974
-0.0004074878345
-0.0005671304403
-0.0007875652129
-0.001091012512
-0.00150732995
-0.002076389879
-0.002851075919
-0.003900993847
-0.00531698768
-0.007216506854
-0.009749811375
-0.01310689654
-0.0175248671
-0.02329528164
-0.03077071957
-0.04036949759
-0.05257709569
-0.06794246992
-0.08706707256
-0.1105841022
-0.1391253708
-0.1732731468
-0.2134946031
-0.2600569847
-0.3129223909
-0.3716224643
-0.4351140737
-0.5016195493
-0.5684549318
-0.6318461743
-0.6867404524
-0.7265844113
-0.7430852872
-0.7259212558
-0.6624477513
-0.5374962759
-0.3337396643
-0.034980958
0.3587345962
0.8754885539
1.371992318
2.116562838
2.442817546
2.153183136
0.8838505609
-0.7724331186
-3.488461332
-7.064377799
-12.60984078
-21.4560778
-29.96761716
-30.12752499
-22.48975614
-14.09473962
-8.07944588
-4.501038993
-2.329172255
-1.24591786
-0.665307871
-0.3572865693
-0.1865434904
-0.1002770806
-0.05425349681
-0.0296482556
-0.0158672937
-0.008726150396
-0.004825709121
-0.002682883742
-0.001499023909
-0.0008417062235
-0.0004755327959
-0.0002648066541
-0.0001499008453
-8.398062442e-05
-4.734620104e-05
-2.66059204e-05
-1.487425033e-05
-8.26037479e-06
-4.562258812e-06
-2.464550883e-06
-1.256317663e-06
-6.100404352e-07
-2.725216477e-07
-1.01515746e-07
-2.075671837e-08
1.216094773e-08
2.201617353e-08
2.194309427e-08
1.838455279e-08
1.537435101e-08
1.212911043e-08
8.932647221e-09
6.455734635e-09
4.59148124e-09
3.219516054e-09
2.228852056e-09
1.525272303e-09
1.033589281e-09
6.93277573e-10
4.607622798e-10
3.035284948e-10
1.98209466e-10
1.282950482e-10
8.22846065e-11
5.226440369e-11
3.284723076e-11
2.040130458e-11
1.250023821e-11
7.536807478e-12
4.455232627e-12
2.567721461e-12
1.429995529e-12
7.576058499e-13
3.701511645e-13
1.543989586e-13
4.009904925e-14
8.979389114e-15
-7.882195667e-15
-1.609594677e-14
-1.894033808e-14
-1.869898814e-14
-1.687509201e-14
-1.440402495e-14
-1.183058636e-14
-9.443770331e-15
-7.373128783e-15
-5.65442759e-15
-4.272482002e-15
-3.187890781e-15
-2.352881209e-15
-1.720071368e-15
-1.246807283e-15
-8.92186422e-16
-6.133197257e-16
-4.191921326e-16
-2.84928223e-16
-1.92622722e-16
-1.295064851e-16
-8.655018382e-17
-5.749003013e-17
-3.791627741e-17
-2.484734623e-17
-1.61873017e-17
-1.048703015e-17
-6.757619921e-18
-4.331324529e-18
-2.761226174e-18
-1.750458562e-18
-1.103131841e-18
-6.907547276e-19
-4.29507748e-19
-2.649970377e-19
-1.621069283e-19
-9.829386064e-20
-5.918605695e-20
-3.496842433e-20
-2.055145934e-20
-1.206889319e-20
-7.076204087e-21
-4.131224148e-21
-2.393196064e-21
-1.364137009e-21
-7.564949251e-22
-4.028484252e-22
-2.010601287e-22
-8.907452732e-23
-2.941661663e-23
3.556668576e-25
1.353145772e-23
1.786263152e-23
1.778016062e-23
1.574617144e-23
1.307321377e-23
1.041625886e-23
8.064684383e-24
6.112918263e-24
4.558109718e-24
3.354454387e-24
2.442169993e-24
1.761958077e-24
1.261383471e-24
8.969453229e-25
6.33993673e-25
4.194235061e-25
2.622826943e-25
1.642663846e-25
1.026194139e-25
6.389419043e-26
3.961558778e-26
2.443559036e-26
1.497773624e-26
9.110782305e-27
5.490751504e-27
3.271371163e-27
1.921300538e-27
1.107804884e-27
6.232789594e-28
3.484229728e-28
2.515367721e-28
1.797145525e-28
1.271680074e-28
8.914385864e-29
6.200993593e-29
4.285952351e-29
2.047676478e-29
7.957940023e-30
1.373974748e-30
-1.778975047e-30
-3.023036036e-30
-3.263132978e-30
-3.022755256e-30
-2.58956419e-30
-2.115436569e-30
-1.673721117e-30
-1.294266606e-30
-9.836937369e-31
-7.373866662e-31
-5.469681921e-31
-4.023458758e-31
-2.931251305e-31
-2.119071305e-31
-1.523444327e-31
-1.046196364e-31
-7.140642525e-32
-4.862660768e-32
-3.279300504e-32
-2.206985176e-32
-1.477992961e-32
-9.951492658e-33
-6.717852466e-33
-4.524919377e-33
-2.948756588e-33
-1.905840331e-33
-1.213528691e-33
-8.025199628e-34
-5.284929673e-34
-3.601177649e-34
-2.549041396e-34
-1.745171475e-34
-1.25593816e-34
-8.909651636e-35
-5.997965861e-35
-4.47429004e-35
-2.559827534e-35
-1.934551906e-35
-1.725254773e-35
-1.239807289e-35
-7.320149544e-36
-3.9690843e-36
-2.039226202e-36
-4.811667012e-36
-3.819407123e-36
-4.294893269e-36
-2.962192879e-36
-2.167146682e-36
-1.791646089e-36
-1.783763751e-36
-2.021804813e-36
-1.823514688e-36
-2.049781576e-36
-1.474713338e-36
-1.106959975e-36
-9.523613696e-37
-6.77696631e-37
-4.607479059e-37
-3.178330835e-37
-3.193682907e-37
-2.304721592e-37
-1.785167098e-37
-1.382930582e-37
-1.042410987e-37
-9.529208262e-38
-8.62279686e-38
-2.267883181e-38
-1.79756187e-38
-2.542083466e-39
1.224200862e-38
-7.061886994e-39
-1.369631586e-38
-2.565678388e-38
-1.758974913e-38
-3.026656413e-38
-2.243358706e-38
-1.872053186e-38
-2.873874274e-38
-1.005667803e-38
-3.371311842e-39
-7.18363127e-40
5.221136233e-39
7.57084239e-39
1.223533129e-38
1.290795277e-38
8.788263277e-39
6.296198778e-39
5.200078768e-39
3.603857936e-39
2.692597841e-39
2.318660125e-39
2.427113133e-39
3.086256987e-39
2.756530265e-39
1.616345808e-39
8.425426205e-40
6.240955171e-40
5.146070272e-40
6.276396787e-40
7.439374202e-40
1.024261871e-39
9.240521684e-40
1.020588326e-39
1.025802202e-39
8.56644369e-40
9.12578374e-40
5.596987304e-40
3.317162217e-40
1.766740968e-40
8.087446201e-41
3.833076152e-41
1.80407684e-41
1.647867874e-42
-1.302645112e-41
-1.969044952e-41
-1.654785589e-41
-7.809179029e-42
-1.007148815e-41
-1.426639105e-41
-1.671917215e-41
-2.769771893e-41
-1.998598493e-41
-1.244371203e-41
-8.511012435e-42
-8.355791785e-42
3.598321575e-42
5.76692238e-42
7.700542473e-43
-6.007600828e-43
-5.868793412e-43
5.36114076e-44
1.065351409e-42
-4.87874999e-43
-1.133907483e-42
-1.011368832e-42
-5.436093846e-43
-7.21965076e-44
9.70299534e-43
1.961514668e-42
2.006880971e-42
2.275827968e-42
2.080448016e-42
1.068312838e-42
9.048078044e-43
1.004846091e-42
6.46293289e-43
1.680653378e-43
5.099401e-44
-6.84052776e-44
1.124058268e-45
6.510873382e-44
-3.677250589e-44
-2.301513844e-44
-2.481862544e-44
-3.059888734e-44
-3.23848964e-45
2.763552293e-44
-2.420469815e-45
-3.5268531e-44
4.673450472e-44
3.162497322e-44
2.285226404e-44
-3.793767172e-45
-3.240687596e-44
-2.753542466e-44
-3.07828136e-44
-2.171985614e-44
-1.61632841e-44
-1.147457448e-44
8.482846582e-45
7.361568266e-45
8.373235628e-45
6.113945302e-45
7.303391164e-45
4.395321634e-45
2.840052942e-45
2.050788905e-45
-2.912439531e-45
-2.777987144e-45
-2.360725111e-45
-1.786674266e-45
-2.014726847e-45
-3.180954178e-45
-4.084938518e-45
-4.955314355e-45
-2.87901228e-45
-1.358771288e-45
-8.980013654e-47
-4.084635102e-46
-4.507028344e-46
-4.980714262e-46
3.459702105e-47
1.943080397e-46
1.987911304e-46
1.795448789e-46
1.428032215e-46
1.054337686e-46
8.012312323e-47
6.202089844e-47
7.928234048e-47
-4.355479623e-47
-3.66694873e-47
-5.04012857e-47
-6.741812856e-47
-9.808109045e-47
-4.968218438e-47
-5.603546799e-48
5.792703209e-47
2.884631509e-47
6.578248413e-48
-1.298410119e-47
-3.841586175e-48
-3.242039207e-47
-3.556158581e-47
-1.734968848e-47
-9.768082543e-49
5.729874286e-49
3.120669682e-48
6.773793786e-48
8.191539272e-48
5.352390388e-48
3.269360495e-48
3.511974788e-48
9.944513467e-48
6.64737231e-48
4.79933671e-48
5.545105312e-48
6.27053531e-48
3.854468212e-48
2.717452823e-48
1.01738855e-48
1.13967379e-48
1.303814429e-48
1.906021866e-48
2.418349575e-48
7.61186593e-49
5.824136865e-50
-1.816649012e-49
-4.361920192e-49
-5.436307852e-49
-4.435149252e-49
-4.355853431e-49
-7.218877344e-49
-4.487061961e-49
-2.609862724e-49
-9.012213649e-50
-9.576807987e-50
-7.54155175e-50
-5.135837814e-50
-2.961256162e-50
1.205659111e-50
9.631109147e-51
-1.202555337e-50
-5.464668638e-50
-3.778279547e-50
-2.586370678e-50
-1.305508812e-50
-3.373323687e-50
-2.26214693e-50
-8.104941924e-51
1.410463444e-50
7.610356593e-52
-5.905940313e-51
-1.426646215e-50
-2.012517898e-50
-1.851043032e-50
-2.142382023e-50
-1.374587709e-50
-1.013272386e-50
-9.9495702e-51
-6.33452237e-51
-3.505382538e-51
-1.927103961e-51
-1.695718215e-51
-5.81002917e-52
3.951306958e-51
2.949364735e-51
2.33473611e-51
2.311020034e-51
1.571050785e-51
9.364212591e-52
7.236623924e-52
8.494608819e-52
1.13205151e-51
7.550366076e-52
5.168785466e-52
8.825855776e-52
1.168898183e-51
1.376097282e-51
8.219238898e-52
6.769960224e-52
5.895127939e-52
5.72167925e-52
4.183785122e-52
3.728623286e-52
4.465805767e-52
3.270434316e-52
2.73071834e-52
2.815381432e-52
2.306474435e-52
2.39059304e-52
6.536739907e-53
5.640269336e-53
1.06296586e-52
5.594601742e-53
4.599143473e-53
4.205786957e-53
4.313602474e-53
4.104225053e-53
2.504323486e-53
1.187150817e-53
2.486317105e-54
9.080171682e-54
2.432937841e-53
2.108449648e-53
8.389131795e-54
1.501230781e-54
-5.565907022e-54
-1.305482413e-53
-1.366366929e-53
-1.147712379e-53
-8.135388648e-54
1.244690788e-55
1.314511453e-54
4.623409239e-54
1.930626422e-54
4.668074275e-56
-4.390362002e-55
-6.701919357e-55
-9.932266282e-55
-9.881004998e-55
-3.011316212e-54
-3.110802035e-54
-1.726389518e-54
-7.441702037e-55
1.877640879e-56
1.198271509e-54
1.040471924e-54
9.9603234e-55
8.092759149e-55
8.41029971e-55
1.118310414e-54
8.732820853e-55
6.316690383e-55
5.293366527e-55
4.392041698e-55
2.543588797e-55
1.251063069e-55
7.015599842e-56
4.528379153e-56
2.779977667e-56
6.62386324e-57
-2.951693108e-58
-1.393971179e-56
-8.066636349e-57
3.528274693e-56
5.707558772e-56
4.647286516e-56
2.782756988e-56
1.220410002e-56
2.349136211e-56
1.11397444e-56
3.5413642e-57
-6.03681067e-58
-2.230837424e-57
-2.648469345e-57
-6.385541128e-58
-1.668417993e-57
-4.835127735e-58
-1.639624462e-57
-3.551611484e-57
-3.185860045e-57
-5.378554933e-57
-9.636045548e-57
-7.640745566e-57
-5.088924989e-57
-3.182571807e-57
-1.776321066e-57
-2.235082421e-58
-1.155511348e-57
-2.290931683e-57
-4.379455334e-57
-3.613907986e-57
-3.631878828e-57
-2.26716335e-57
5.891957759e-59
-7.327471978e-59
-1.412960819e-59
-4.022013736e-60
-7.375810235e-61
2.495423272e-61
1.054513321e-62
1.212462703e-64
-4.802503219e-64
-7.922388551e-65
1.285168853e-67
3.595339755e-65
8.505174468e-66
6.572859477e-67
-3.230778903e-67
-5.386180931e-68
1.354850128e-71
1.500069771e-68
-2.581629437e-70
2.938613875e-69
-1.94214883e-69
-2.59994239e-70
-1.381651209e-70
2.467819299e-70
-5.725674489e-71
-1.685260729e-71
2.400262769e-71
5.349721214e-73
-1.146269855e-71
-3.688331826e-73
-9.164026706e-72
1.618136862e-73
-4.407050972e-73
-2.931042264e-73
-4.579369834e-73
1.122196886e-72
1.841659849e-74
-2.054086819e-74
-1.783641121e-74
3.366431625e-76
-6.111062196e-75
4.080144461e-75
4.792231893e-74
-3.941309388e-74
6.665633217e-76
8.259688107e-75
1.003166041e-74
-2.238110502e-74
-5.463944464e-76
-1.366429419e-75
1.082845389e-75
-7.705521308e-76
7.628206551e-76
-3.380140298e-76
3.610955527e-76
4.578761181e-76
5.032397764e-76
-1.904794566e-76
7.749188846e-77
6.372388633e-77
-8.218349193e-78
1.762334998e-77
-4.601732625e-78
1.468678278e-79
-3.197588716e-78
-3.150832691e-80
-8.83645124e-81
-9.845700704e-80
-3.769057955e-80
-2.747507973e-80
-1.749630537e-79
-2.625577742e-80
-2.487856385e-80
-1.151250584e-81
-4.373947503e-80
3.989516262e-80
1.107420275e-81
4.942849568e-84
2.950679368e-81
-5.419666917e-81
-3.25167728e-81
-3.823077425e-82
-1.065467457e-81
1.437435647e-81
2.408697377e-83
-1.991946105e-82
-1.295207179e-84
-1.839552892e-83
-1.816799907e-82
-4.306019586e-83
-1.036136042e-84
1.583330232e-83
2.277799808e-84
-4.430515504e-84
-2.112991591e-85
-2.04696073e-86
-2.005502532e-85
-2.299302663e-86
-2.817589339e-86
-2.476190765e-87
-8.26388338e-87
-3.407679678e-87
6.506533745e-87
3.777082516e-87
7.669298291e-89
2.55386462e-88
-6.356480921e-88
4.933031914e-90
5.67054639e-88
1.799720328e-87
2.408011423e-89
-9.228696695e-89
4.623527565e-90
1.465659618e-87
1.011540204e-89
1.069438376e-87
2.116330841e-88
3.239755966e-90
-1.736057793e-90
1.314579688e-87
1.714527403e-89
-6.176357229e-88
-7.822153434e-90
2.440762388e-88
-3.55525831e-88
-2.602319198e-88
-2.199246628e-88
-4.993378665e-88
-2.012793945e-88
-3.049867096e-88
-1.112701259e-87
3.234335233e-88
6.356588314e-88
-1.17065524e-87
1.226641769e-88
-6.460369086e-88
4.376612497e-88
-1.250706331e-88
-3.667033776e-88
-8.116776612e-88
-6.378862704e-88
9.810227346e-89
-2.262431086e-90
-9.853239346e-88
-4.512705177e-88
2.310318001e-87
9.461366233e-89
2.326364849e-88
2.641099067e-87
-4.413880926e-87
-2.696469538e-89
7.365598862e-89
5.791464057e-88
-8.2149134e-88
2.064911135e-87
2.295343598e-89
-4.545215762e-89
-5.302948319e-90
-9.15412022e-88
3.267796564e-88
1.003890582e-87
-3.236508436e-88
5.712382405e-89
-3.018520416e-87
2.082892262e-88
-1.229117764e-89
2.650600123e-87
2.836189559e-89
-5.487027732e-88
-1.596129256e-87
4.274936394e-89
5.842414895e-87
4.296228551e-88
1.374340147e-87
4.691321038e-89
9.223821072e-88
2.435986454e-88
-2.239752556e-87
-1.050364469e-88
-6.247427186e-88
1.857375258e-90
6.63998817e-91
-1.315640217e-87
-4.09770009e-88
-1.138143626e-88
3.19991513e-87
2.288862284e-89
1.524354321e-87
-1.398727482e-87
2.671227623e-89
1.775283932e-87
-1.300534484e-88
9.350244215e-91
2.66748095e-88
-6.790543672e-88
-1.315632529e-88
9.695416778e-90
3.317867699e-91
2.401540448e-88
-2.481763279e-88
1.368201261e-89
7.79165562e-92
-4.788062891e-89
1.342800683e-88
2.531009458e-88
5.245645741e-88
7.963241644e-88
-7.879245826e-88
4.990650984e-88
3.870544029e-89
1.820444387e-90
-3.384228053e-88
-1.227808621e-87
-1.577822944e-88
3.419407451e-88
-3.332974136e-88
1.330119698e-87
2.653557603e-88
1.448662317e-90
1.343304658e-88
-2.096137681e-89
2.937110288e-89
-1.501954284e-90
1.52325661e-88
2.072712449e-89
-1.316347895e-90
-3.785207512e-88
-2.223858954e-88
-6.685676597e-88
-6.129962766e-88
-4.523033584e-88
-6.190213541e-88
2.028943819e-88
2.552677843e-88
-8.73268882e-88
-1.581276399e-87
4.647690402e-88
1.431341655e-87
-3.549328015e-88
1.682537031e-87
7.267453838e-91
1.462808639e-87
6.510857759e-88
3.25715555e-90
3.634333746e-88
2.917214971e-88
-3.460612584e-88
2.560311272e-88
-2.08954731e-88
-6.708469605e-88
)
;

boundaryField
{
    inlet
    {
        type            calculated;
        value           uniform 0;
    }
    outlet
    {
        type            calculated;
        value           uniform -6.708469451e-88;
    }
    wall
    {
        type            empty;
    }
}


// ************************************************************************* //
