/*--------------------------------*- C++ -*----------------------------------*\
  =========                 |
  \\      /  F ield         | OpenFOAM: The Open Source CFD Toolbox
   \\    /   O peration     | Website:  https://openfoam.org
    \\  /    A nd           | Version:  7
     \\/     M anipulation  |
\*---------------------------------------------------------------------------*/
FoamFile
{
    version     2.0;
    format      ascii;
    class       volScalarField;
    location    "0.000558243009";
    object      ddt0(rho,C3H3);
}
// * * * * * * * * * * * * * * * * * * * * * * * * * * * * * * * * * * * * * //

dimensions      [1 -3 -1 0 0 0 0];

internalField   nonuniform List<scalar> 
1500
(
-4.072613266e-25
-7.39799635e-25
-9.249457567e-25
-8.22469345e-25
-5.718912402e-25
-3.324610127e-25
-1.669224271e-25
-7.359765023e-26
-2.899391911e-26
-1.075753391e-26
-4.534823529e-27
-3.058205895e-27
-3.211630935e-27
-3.835711921e-27
-4.528982474e-27
-5.154021912e-27
-5.656671563e-27
-6.011680317e-27
-6.208142936e-27
-6.244615166e-27
-6.126293711e-27
-5.862634468e-27
-5.465451337e-27
-4.947692704e-27
-4.322892374e-27
-3.605118457e-27
-2.809167511e-27
-1.950775251e-27
-1.046701362e-27
-1.146383466e-28
8.270389606e-28
1.759628269e-27
2.66449416e-27
3.52345549e-27
4.319141057e-27
5.035317041e-27
5.657205465e-27
6.171800544e-27
6.568185886e-27
6.837842611e-27
6.974930134e-27
6.976515759e-27
6.842723133e-27
6.576773874e-27
6.184908165e-27
5.676182697e-27
5.062157259e-27
4.356493148e-27
3.574491353e-27
2.732600382e-27
1.847922674e-27
9.377438242e-28
1.910337791e-29
-8.915814549e-28
-1.77883367e-27
-2.628375661e-27
-3.42733266e-27
-4.164385726e-27
-4.829879533e-27
-5.415891617e-27
-5.916267698e-27
-6.326624286e-27
-6.644319339e-27
-6.8683905e-27
-6.999460205e-27
-7.039606822e-27
-6.992204003e-27
-6.86173209e-27
-6.653567081e-27
-6.373754983e-27
-6.028782192e-27
-5.625353992e-27
-5.17019311e-27
-4.669869142e-27
-4.130667415e-27
-3.558502356e-27
-2.958878334e-27
-2.336896263e-27
-1.697300336e-27
-1.044556546e-27
-3.829524997e-28
2.832926485e-28
9.499201009e-28
1.612535934e-27
2.266536804e-27
2.90706409e-27
3.528990189e-27
4.126937694e-27
4.695330266e-27
5.228472268e-27
5.720652691e-27
6.166267466e-27
6.559953372e-27
6.896726165e-27
7.172116382e-27
7.382295271e-27
7.524185181e-27
7.595548608e-27
7.595052266e-27
7.522303319e-27
7.377856835e-27
7.163194989e-27
6.880680061e-27
6.533485066e-27
6.125506776e-27
5.661266825e-27
5.145807146e-27
4.58458553e-27
3.983376431e-27
3.348181192e-27
2.685150075e-27
2.000516785e-27
1.300545017e-27
5.914843527e-28
-1.204671743e-28
-8.291977547e-28
-1.52871703e-27
-2.213194952e-27
-2.877006128e-27
-3.51478038e-27
-4.121458801e-27
-4.69235323e-27
-5.223206556e-27
-5.710250008e-27
-6.150253928e-27
-6.54056871e-27
-6.879153411e-27
-7.164590559e-27
-7.396086874e-27
-7.573460984e-27
-7.697119922e-27
-7.768027446e-27
-7.787667052e-27
-7.75800276e-27
-7.681440327e-27
-7.560790524e-27
-7.399234936e-27
-7.200294042e-27
-6.967795421e-27
-6.705839775e-27
-6.418761132e-27
-6.111077983e-27
-5.787432172e-27
-5.452512822e-27
-5.110964894e-27
-4.767282313e-27
-4.425688461e-27
-4.090008207e-27
-3.763537804e-27
-3.448920016e-27
-3.148033017e-27
-2.861901944e-27
-2.59064169e-27
-2.333437627e-27
-2.088570319e-27
-1.853486205e-27
-1.624915161e-27
-1.399030342e-27
-1.171644934e-27
-9.384351854e-28
-6.951784818e-28
-4.379919701e-28
-1.635574332e-28
1.306823381e-28
4.463686279e-28
7.841249848e-28
1.143515197e-27
1.523065473e-27
1.920349424e-27
2.332130252e-27
2.754550126e-27
3.183352373e-27
3.614119303e-27
4.042507492e-27
4.46446152e-27
4.876388585e-27
5.275281057e-27
5.658776911e-27
6.025154986e-27
6.373267406e-27
6.702418482e-27
7.012203807e-27
7.302327915e-27
7.572420883e-27
7.821874143e-27
8.049713509e-27
8.254524073e-27
8.434434214e-27
8.587161928e-27
8.710118192e-27
8.800557809e-27
8.85576332e-27
8.873245429e-27
8.850943134e-27
8.787408562e-27
8.681963502e-27
8.534819009e-27
8.347152514e-27
8.121139686e-27
7.859938502e-27
7.567626134e-27
7.249084937e-27
6.909835867e-27
6.555817081e-27
6.193105888e-27
5.827590184e-27
5.464599036e-27
5.108516577e-27
4.762412148e-27
4.42773275e-27
4.104112185e-27
3.789353333e-27
3.479633799e-27
3.169970168e-27
2.854946757e-27
2.529677199e-27
2.190923653e-27
1.838251405e-27
1.475053615e-27
1.109254886e-27
7.534922166e-28
4.245928173e-28
1.422180907e-28
-7.33721846e-29
-2.04369932e-28
-2.390862224e-28
-1.759004456e-28
-2.702739844e-29
1.784591963e-28
3.929591676e-28
5.506305802e-28
5.701307355e-28
3.601367552e-28
-1.722866936e-28
-1.110737698e-27
-2.516585691e-27
-4.415168958e-27
-6.78248271e-27
-9.534067834e-27
-1.25180521e-26
-1.551448225e-26
-1.824335619e-26
-2.038420232e-26
-2.161100409e-26
-2.164645016e-26
-2.033908488e-26
-1.775144919e-26
-1.422633763e-26
-1.026382241e-26
-5.929073256e-27
-2.547438424e-27
-1.944556659e-27
-1.83813225e-27
-1.824389618e-27
-1.824859567e-27
-1.829275978e-27
-1.844031655e-27
-1.877939642e-27
-1.938317889e-27
-2.029948237e-27
-2.155769489e-27
-2.317814274e-27
-2.517800439e-27
-2.7575867e-27
-3.039225977e-27
-3.364971161e-27
-3.737308886e-27
-4.158875877e-27
-4.63245307e-27
-5.16093708e-27
-5.747373772e-27
-6.394980083e-27
-7.107076065e-27
-7.887171152e-27
-8.738897487e-27
-9.66615751e-27
-1.067294455e-26
-1.176350751e-26
-1.29422417e-26
-1.421383825e-26
-1.558313518e-26
-1.705526956e-26
-1.863559032e-26
-2.032971033e-26
-2.214356153e-26
-2.408330904e-26
-2.615543762e-26
-2.836677906e-26
-3.072446159e-26
-3.323596865e-26
-3.590916607e-26
-3.875229724e-26
-4.177401461e-26
-4.49833602e-26
-4.838986139e-26
-5.200349569e-26
-5.583469646e-26
-5.989443996e-26
-6.419423836e-26
-6.874612343e-26
-7.356275296e-26
-7.865736638e-26
-8.404387769e-26
-8.973682767e-26
-9.575148899e-26
-1.021038663e-25
-1.08810739e-25
-1.158896899e-25
-1.233591333e-25
-1.312383716e-25
-1.395476626e-25
-1.483081832e-25
-1.575421747e-25
-1.672728956e-25
-1.775247566e-25
-1.883232809e-25
-1.996952603e-25
-2.116687439e-25
-2.242730925e-25
-2.37539114e-25
-2.514990343e-25
-2.661866331e-25
-2.816372726e-25
-2.978880515e-25
-3.149777538e-25
-3.329470896e-25
-3.518386254e-25
-3.716970059e-25
-3.925689674e-25
-4.145035005e-25
-4.375519069e-25
-4.61767937e-25
-4.872079403e-25
-5.139308725e-25
-5.419986233e-25
-5.714759496e-25
-6.024307895e-25
-6.349343015e-25
-6.690610573e-25
-7.048892711e-25
-7.42500911e-25
-7.819819054e-25
-8.23422375e-25
-8.669168021e-25
-9.125642789e-25
-9.604687583e-25
-1.010739237e-24
-1.063490101e-24
-1.118841343e-24
-1.176918878e-24
-1.237854848e-24
-1.301787906e-24
-1.368863654e-24
-1.439234849e-24
-1.513061942e-24
-1.590513368e-24
-1.671765947e-24
-1.757005423e-24
-1.846426843e-24
-1.940235045e-24
-2.038645194e-24
-2.141883294e-24
-2.250186714e-24
-2.363804843e-24
-2.48299962e-24
-2.608046233e-24
-2.739233705e-24
-2.876865739e-24
-3.021261226e-24
-3.172755189e-24
-3.331699462e-24
-3.498463565e-24
-3.673435516e-24
-3.857022719e-24
-4.049652928e-24
-4.251775069e-24
-4.46386041e-24
-4.686403377e-24
-4.919922773e-24
-5.164962723e-24
-5.422093856e-24
-5.691914454e-24
-5.97505159e-24
-6.272162406e-24
-6.583935224e-24
-6.911090894e-24
-7.254384145e-24
-7.614604763e-24
-7.992579033e-24
-8.389171132e-24
-8.805284357e-24
-9.24186271e-24
-9.699892208e-24
-1.018040244e-23
-1.068446782e-23
-1.121320929e-23
-1.176779554e-23
-1.23494447e-23
-1.295942571e-23
-1.359905973e-23
-1.426972176e-23
-1.497284193e-23
-1.570990715e-23
-1.648246232e-23
-1.729211195e-23
-1.814052142e-23
-1.902941841e-23
-1.996059432e-23
-2.093590544e-23
-2.195727438e-23
-2.302669132e-23
-2.414621512e-23
-2.531797475e-23
-2.654417009e-23
-2.782707342e-23
-2.916903037e-23
-3.057246078e-23
-3.203986004e-23
-3.357379976e-23
-3.517692896e-23
-3.685197491e-23
-3.860174378e-23
-4.0429122e-23
-4.23370767e-23
-4.432865667e-23
-4.640699328e-23
-4.857530139e-23
-5.083687999e-23
-5.319511331e-23
-5.565347187e-23
-5.821551308e-23
-6.088488279e-23
-6.366531626e-23
-6.656063942e-23
-6.957477018e-23
-7.271172049e-23
-7.597559738e-23
-7.937060558e-23
-8.290104916e-23
-8.657133433e-23
-9.038597216e-23
-9.434958131e-23
-9.84668919e-23
-1.027427489e-22
-1.071821168e-22
-1.117900843e-22
-1.165718692e-22
-1.215328247e-22
-1.266784459e-22
-1.320143768e-22
-1.375464182e-22
-1.432805367e-22
-1.492228739e-22
-1.55379758e-22
-1.617577134e-22
-1.683634754e-22
-1.75204003e-22
-1.822864939e-22
-1.896184009e-22
-1.972074504e-22
-2.050616603e-22
-2.131893632e-22
-2.215992259e-22
-2.303002772e-22
-2.393019318e-22
-2.4861402e-22
-2.582468193e-22
-2.682110857e-22
-2.785180905e-22
-2.891796579e-22
-3.002082075e-22
-3.116167973e-22
-3.23419171e-22
-3.356298097e-22
-3.482639859e-22
-3.613378217e-22
-3.748683509e-22
-3.888735871e-22
-4.033725945e-22
-4.183855624e-22
-4.339338907e-22
-4.500402755e-22
-4.667288011e-22
-4.84025043e-22
-5.019561711e-22
-5.205510675e-22
-5.39840446e-22
-5.598569843e-22
-5.806354635e-22
-6.022129169e-22
-6.246287901e-22
-6.479251146e-22
-6.721466907e-22
-6.973412844e-22
-7.235598411e-22
-7.508567164e-22
-7.792899182e-22
-8.089213758e-22
-8.398172342e-22
-8.720481574e-22
-9.056896796e-22
-9.408225795e-22
-9.775332902e-22
-1.015914367e-21
-1.05606502e-21
-1.098091731e-21
-1.142108978e-21
-1.18824009e-21
-1.236618162e-21
-1.287386951e-21
-1.340701518e-21
-1.396728459e-21
-1.455660467e-21
-1.517630615e-21
-1.582928169e-21
-1.651875753e-21
-1.724907712e-21
-1.801979775e-21
-1.883437013e-21
-1.969679755e-21
-2.061168091e-21
-2.158447407e-21
-2.26217399e-21
-2.37314944e-21
-2.492366993e-21
-2.621068123e-21
-2.760807976e-21
-2.913603167e-21
-3.082730262e-21
-3.270849548e-21
-3.48230554e-21
-3.72285402e-21
-3.999958709e-21
-4.323699298e-21
-4.707603809e-21
-5.169651251e-21
-5.733953051e-21
-6.432910594e-21
-7.310130705e-21
-8.424374878e-21
-9.854905344e-21
-1.170872262e-20
-1.413036484e-20
-1.731517662e-20
-2.152727556e-20
-2.71238812e-20
-3.458825884e-20
-4.457432949e-20
-5.796707738e-20
-7.59643489e-20
-1.001876166e-19
-1.328319643e-19
-1.768691763e-19
-2.363227298e-19
-3.166401352e-19
-4.251970795e-19
-5.719800015e-19
-7.705102275e-19
-1.039095115e-18
-1.402521844e-18
-1.894350389e-18
-2.560017489e-18
-3.461038288e-18
-4.680693538e-18
-6.331727284e-18
-8.566765155e-18
-1.159241417e-17
-1.568834388e-17
-2.123310724e-17
-2.873907986e-17
-3.889973447e-17
-5.265360214e-17
-7.127080386e-17
-9.647010988e-17
-1.30577285e-16
-1.767392676e-16
-2.392138457e-16
-3.237614166e-16
-4.381747603e-16
-5.929953951e-16
-8.024821462e-16
-1.08592062e-15
-1.469393421e-15
-1.988173009e-15
-2.689955933e-15
-3.63923386e-15
-4.923200436e-15
-6.659732864e-15
-9.008175859e-15
-1.218391052e-14
-1.647803438e-14
-2.228394342e-14
-3.013323233e-14
-4.074417479e-14
-5.508718473e-14
-7.447319646e-14
-1.006729746e-13
-1.360781598e-13
-1.839186238e-13
-2.485557883e-13
-3.358784077e-13
-4.538365449e-13
-6.131619e-13
-8.283394058e-13
-1.118917569e-12
-1.51127543e-12
-2.041004934e-12
-2.75612264e-12
-3.721398854e-12
-5.024192153e-12
-6.782311645e-12
-9.154610201e-12
-1.235525502e-11
-1.667294932e-11
-2.249681874e-11
-3.035126799e-11
-4.094290822e-11
-5.522372475e-11
-7.447609127e-11
-1.004271652e-10
-1.354027913e-10
-1.825345207e-10
-2.460380216e-10
-3.315874314e-10
-4.468186099e-10
-6.020055444e-10
-8.109692848e-10
-1.092299099e-09
-1.470992719e-09
-1.980659033e-09
-2.666475369e-09
-3.589156919e-09
-4.830283357e-09
-6.499444724e-09
-8.743825126e-09
-1.176105195e-08
-1.581641731e-08
-2.126595094e-08
-2.858732032e-08
-3.842119486e-08
-5.162659167e-08
-6.935489014e-08
-9.314875875e-08
-1.250743022e-07
-1.678974771e-07
-2.25319458e-07
-3.02290455e-07
-4.05427857e-07
-5.435730289e-07
-7.285322523e-07
-9.760620661e-07
-1.30717872e-06
-1.749897081e-06
-2.341537916e-06
-3.131786392e-06
-4.186741559e-06
-5.594270072e-06
-7.471072856e-06
-9.971981636e-06
-1.33021802e-05
-1.773318126e-05
-2.362365754e-05
-3.14464696e-05
-4.182355426e-05
-5.557077865e-05
-7.375517738e-05
-9.776779739e-05
-0.0001294158563
-0.0001710389219
-0.0002256548525
-0.0002971425089
-0.0003904696153
-0.0005119754126
-0.0006697185225
-0.0008739000851
-0.001137369817
-0.001476216857
-0.00191043559
-0.002464636975
-0.003168741037
-0.004058531644
-0.005175869649
-0.006568235597
-0.008287108502
-0.01038445916
-0.0129063971
-0.01588271071
-0.01931070475
-0.02313165846
-0.02719740128
-0.03122558558
-0.03474188043
-0.03701119761
-0.03696449884
-0.03312926527
-0.02354660328
-0.00559267551
0.02770910678
0.08019171772
0.1931651605
0.3391463787
0.5023128605
0.5165347909
0.8853435112
1.295918833
1.799718454
2.436481647
3.243494307
4.260999471
5.536041808
7.148139297
9.206143056
11.40336202
14.91009788
14.31484602
18.66380008
23.51159867
29.05407155
30.15406335
36.0870536
41.93760785
47.32289545
41.64003317
42.12488703
38.38095746
30.15143535
18.63522498
7.940618422
2.963815184
7.270393785
22.37423453
45.60001897
65.96432628
80.86437391
88.67126301
88.29935301
80.07936464
67.99694088
58.02996532
47.07835289
36.45538321
27.64245965
20.01135673
12.9546267
6.383610524
0.543805546
-4.517457872
-5.252152516
-5.535330603
-6.679755668
-6.956799985
-6.750082975
-6.306311247
-5.76776895
-5.210961684
-4.647479628
-4.138334523
-3.665592493
-3.232714728
-2.840269262
-2.487249302
-2.17177127
-1.891452472
-1.643637681
-1.425549677
-1.234405106
-1.067466744
-0.9221236389
-0.7959250041
-0.6866029118
-0.5920845419
-0.5104955798
-0.4401569369
-0.3795763415
-0.3274366612
-0.2825822145
-0.244004095
-0.2108252723
-0.182286142
-0.1577307872
-0.1365942294
-0.1183907965
-0.1027036486
-0.08917545091
-0.07750014171
-0.06741572208
-0.05869797849
-0.05115504638
-0.0446227214
-0.03896042951
-0.03404777298
-0.02978157632
-0.02607336408
-0.02284721002
-0.02003790451
-0.01758939392
-0.01545345193
-0.01358854831
-0.01195888564
-0.0105335787
-0.009285955107
-0.008192958805
-0.007234641011
-0.006393725393
-0.005655236351
-0.005006180942
-0.004435276463
-0.003932716894
-0.003489972471
-0.003099617501
-0.00275518231
-0.002451025782
-0.002182225538
-0.001944483214
-0.001734042661
-0.001547619268
-0.001382338802
-0.001235684459
-0.00110545097
-0.0009897047884
-0.0008867495258
-0.0007950959162
-0.0007134356982
-0.0006406188841
-0.0005756339658
-0.0005175906625
-0.0004657048773
-0.0004192855716
-0.0003777233038
-0.0003404802191
-0.0003070813003
-0.0002771067167
-0.0002501851324
-0.0002259878488
-0.0002042236755
-0.0001846344393
-0.0001669910469
-0.0001510900345
-0.0001367505413
-0.0001238116544
-0.0001121300778
-0.0001015780794
-9.204172047e-05
-8.341923238e-05
-7.561965844e-05
-6.856161752e-05
-6.217223255e-05
-5.638617968e-05
-5.114485253e-05
-4.639562392e-05
-4.209119466e-05
-3.818901772e-05
-3.465078924e-05
-3.144199787e-05
-2.853152555e-05
-2.589129334e-05
-2.349594714e-05
-2.132257823e-05
-1.935047478e-05
-1.756090039e-05
-1.593689671e-05
-1.446310718e-05
-1.312561955e-05
-1.191182488e-05
-1.081029134e-05
-9.810650905e-06
-8.903497726e-06
-8.080296715e-06
-7.333301311e-06
-6.655479401e-06
-6.040446515e-06
-5.482405557e-06
-4.976092331e-06
-4.516726306e-06
-4.099966063e-06
-3.721868951e-06
-3.37885452e-06
-3.067671378e-06
-2.78536712e-06
-2.52926102e-06
-2.296919247e-06
-2.086132343e-06
-1.894894758e-06
-1.72138624e-06
-1.563954929e-06
-1.421101963e-06
-1.291467494e-06
-1.173817956e-06
-1.067034494e-06
-9.701024288e-07
-8.821016771e-07
-8.021980435e-07
-7.296352909e-07
-6.637279384e-07
-6.038547068e-07
-5.494525631e-07
-5.000113057e-07
-4.550686456e-07
-4.142057361e-07
-3.770431111e-07
-3.432370008e-07
-3.124759817e-07
-2.844779388e-07
-2.589873092e-07
-2.357725803e-07
-2.146240208e-07
-1.953516241e-07
-1.777832437e-07
-1.617629025e-07
-1.47149262e-07
-1.338142356e-07
-1.216417307e-07
-1.105265128e-07
-1.003731747e-07
-9.109520419e-08
-8.261414083e-08
-7.485881199e-08
-6.776464262e-08
-6.127303001e-08
-5.533077866e-08
-4.98895887e-08
-4.490559434e-08
-4.033894452e-08
-3.615342554e-08
-3.231611861e-08
-2.879709043e-08
-2.556911379e-08
-2.260741392e-08
-1.988944008e-08
-1.739465807e-08
-1.510436323e-08
-1.300151061e-08
-1.107056165e-08
-9.297345492e-09
-7.668932874e-09
-6.173522587e-09
-4.800338451e-09
-3.539535624e-09
-2.382116347e-09
-1.319852939e-09
-3.452185826e-10
5.486758799e-10
1.368139048e-09
2.118950726e-09
2.806409057e-09
3.435373312e-09
4.010302467e-09
4.535290483e-09
5.014098427e-09
5.450183337e-09
5.846724802e-09
6.20664886e-09
6.532649934e-09
6.827210714e-09
7.092620135e-09
7.330989972e-09
7.544269699e-09
7.734260355e-09
7.902626703e-09
8.050908754e-09
8.180532099e-09
8.29281719e-09
8.388988085e-09
8.470180238e-09
8.537447621e-09
8.591769295e-09
8.634055335e-09
8.66515239e-09
8.6858485e-09
8.696877765e-09
8.698924492e-09
8.692626991e-09
8.678581059e-09
8.657343135e-09
8.629433357e-09
8.595338087e-09
8.555512446e-09
8.510382576e-09
8.460347686e-09
8.40578196e-09
8.347036285e-09
8.284439907e-09
8.218301847e-09
8.148912343e-09
8.076543987e-09
8.001452996e-09
7.923880232e-09
7.844052141e-09
7.762181758e-09
7.678469484e-09
7.59310388e-09
7.506262382e-09
7.418112005e-09
7.328809926e-09
7.238504088e-09
7.147333723e-09
7.05542986e-09
6.9629158e-09
6.869907529e-09
6.776514153e-09
6.682838256e-09
6.588976272e-09
6.495018803e-09
6.401050957e-09
6.307152604e-09
6.213398699e-09
6.119859493e-09
6.02660081e-09
5.933684269e-09
5.841167506e-09
5.749104353e-09
5.657545084e-09
5.566536529e-09
5.47612231e-09
5.386342975e-09
5.297236146e-09
5.208836688e-09
5.12117684e-09
5.034286342e-09
4.948192562e-09
4.86292063e-09
4.778493534e-09
4.694932235e-09
4.612255779e-09
4.530481377e-09
4.449624526e-09
4.369699061e-09
4.290717271e-09
4.212689972e-09
4.13562658e-09
4.059535181e-09
3.984422616e-09
3.91029453e-09
3.837155455e-09
3.765008857e-09
3.693857198e-09
3.623701988e-09
3.554543865e-09
3.48638259e-09
3.419217159e-09
3.353045802e-09
3.287866053e-09
3.223674782e-09
3.160468238e-09
3.098242085e-09
3.036991444e-09
2.976710922e-09
2.91739465e-09
2.85903631e-09
2.801629173e-09
2.745166122e-09
2.689639679e-09
2.635042034e-09
2.581365072e-09
2.528600393e-09
2.476739335e-09
2.425773004e-09
2.375692276e-09
2.326487839e-09
2.278150197e-09
2.230669188e-09
2.184036042e-09
2.1382403e-09
2.093271917e-09
2.049120674e-09
2.005776497e-09
1.963228982e-09
1.921467779e-09
1.880482475e-09
1.840262621e-09
1.800797746e-09
1.762077356e-09
1.72409095e-09
1.68682803e-09
1.650278104e-09
1.614430702e-09
1.579275374e-09
1.544801706e-09
1.510999319e-09
1.47785788e-09
1.445367105e-09
1.413516769e-09
1.382296703e-09
1.351696806e-09
1.321707046e-09
1.292317466e-09
1.263518184e-09
1.235299403e-09
1.207651405e-09
1.180564565e-09
1.154029346e-09
1.128036303e-09
1.102576085e-09
1.077639442e-09
1.053217219e-09
1.029300364e-09
1.005879927e-09
9.829470619e-10
9.604930264e-10
9.385091861e-10
9.169870114e-10
8.959180828e-10
8.752940873e-10
8.551068215e-10
8.353481915e-10
8.160102134e-10
7.970850114e-10
7.785648224e-10
7.604419909e-10
7.427089727e-10
7.253583327e-10
7.083827454e-10
6.917749946e-10
6.755279729e-10
6.596346814e-10
6.440882285e-10
6.288818309e-10
6.140088106e-10
5.994625974e-10
5.852367247e-10
5.71324831e-10
5.577206587e-10
5.444180538e-10
5.31410963e-10
5.186934349e-10
5.062596182e-10
4.941037611e-10
4.822202093e-10
4.706034069e-10
4.592478937e-10
4.481483038e-10
4.372993675e-10
4.266959061e-10
4.163328344e-10
4.06205157e-10
3.96307969e-10
3.866364541e-10
3.771858832e-10
3.679516134e-10
3.589290882e-10
3.50113834e-10
3.415014608e-10
3.330876601e-10
3.248682049e-10
3.168389467e-10
3.089958161e-10
3.013348209e-10
2.938520449e-10
2.865436469e-10
2.794058599e-10
2.724349892e-10
2.656274121e-10
2.589795765e-10
2.524879993e-10
2.461492664e-10
2.399600302e-10
2.339170098e-10
2.280169894e-10
2.222568168e-10
2.166334033e-10
2.111437218e-10
2.057848063e-10
2.005537505e-10
1.954477073e-10
1.904638871e-10
1.855995573e-10
1.808520412e-10
1.762187173e-10
1.716970177e-10
1.672844275e-10
1.629784845e-10
1.587767769e-10
1.546769437e-10
1.506766731e-10
1.467737019e-10
1.429658142e-10
1.392508415e-10
1.356266605e-10
1.320911935e-10
1.286424069e-10
1.252783107e-10
1.219969574e-10
1.187964415e-10
1.156748986e-10
1.126305049e-10
1.09661476e-10
1.067660666e-10
1.039425695e-10
1.011893151e-10
9.850467078e-11
9.588703988e-11
9.333486147e-11
9.084660941e-11
8.84207919e-11
8.605595069e-11
8.37506608e-11
8.150352957e-11
7.931319642e-11
7.717833201e-11
7.509763793e-11
7.306984609e-11
7.109371819e-11
6.91680453e-11
6.729164727e-11
6.546337246e-11
6.368209694e-11
6.194672457e-11
6.025618601e-11
5.860943885e-11
5.700546667e-11
5.544327913e-11
5.392191132e-11
5.244042338e-11
5.099790027e-11
4.959345142e-11
4.82262101e-11
4.689533346e-11
4.560000179e-11
4.433941852e-11
4.311280949e-11
4.191942297e-11
4.075852898e-11
3.962942765e-11
3.853141517e-11
3.746383438e-11
3.642604094e-11
3.541741244e-11
3.443734908e-11
3.348527682e-11
3.256064496e-11
3.166293799e-11
3.079167543e-11
2.994642146e-11
2.912679414e-11
2.833247687e-11
2.756322927e-11
2.681889388e-11
2.609939601e-11
2.540471478e-11
2.473483061e-11
2.408956036e-11
2.346839758e-11
2.286976781e-11
2.229128941e-11
2.172614308e-11
2.116604703e-11
2.059281874e-11
1.997857165e-11
1.928093077e-11
1.844089229e-11
9.674802287e-12
9.890065974e-12
6.482944259e-12
4.211154975e-12
2.717275242e-12
1.735725859e-12
1.09523974e-12
6.811900999e-13
4.164978661e-13
2.494715146e-13
1.45649975e-13
8.224654057e-14
4.434098304e-14
2.227203003e-14
9.861314512e-15
3.212913393e-15
-9.068083326e-17
-1.521641511e-15
-1.956364355e-15
-1.901927585e-15
-1.640868995e-15
-1.322365942e-15
-1.018702535e-15
-7.595383779e-16
-5.522127305e-16
-3.93408577e-16
-2.755814145e-16
-1.902963215e-16
-1.297943063e-16
-8.758981649e-17
-5.856943509e-17
-3.886141793e-17
-2.562149654e-17
-1.680973348e-17
-1.099166419e-17
-7.175370944e-18
-4.684833838e-18
-3.065155107e-18
-2.013639967e-18
-1.330841049e-18
-8.864497097e-19
-5.959305535e-19
-4.047454507e-19
-2.778483606e-19
-1.927602518e-19
-1.3505899e-19
-9.546738784e-20
-6.798527628e-20
-4.870440349e-20
-3.504752148e-20
-2.529752777e-20
-1.829356629e-20
-1.323902661e-20
-9.580751679e-21
-6.927229989e-21
-5.001044048e-21
-3.604452459e-21
-2.593494312e-21
-1.861595965e-21
-1.333373874e-21
-9.52274422e-22
-6.788802752e-22
-4.826073851e-22
-3.424425835e-22
-2.423814521e-22
-1.712485661e-22
-1.207575437e-22
-8.504473439e-23
-5.985516591e-23
-4.20970421e-23
-2.967767464e-23
-2.089429918e-23
-1.476706205e-23
-1.044896016e-23
-7.173224873e-24
-5.333905956e-24
-4.026275524e-24
-2.770575545e-24
-2.239882159e-24
-1.673853762e-24
-1.344706336e-24
-1.045719534e-24
-8.315817656e-25
-5.311373947e-25
-4.933485069e-25
-4.538823049e-25
-3.970810702e-25
-3.205849257e-25
-3.072179946e-25
-2.34069007e-25
-1.762049863e-25
-1.450768942e-25
-1.175570942e-25
-1.009334055e-25
-8.727599788e-26
-7.314993252e-26
-5.458380937e-26
-3.816136108e-26
-3.151031905e-26
-2.365895739e-26
-1.861218653e-26
-9.437595049e-27
-1.201166036e-27
6.265472532e-28
4.267002623e-27
5.88114631e-27
8.324908586e-27
1.282963415e-26
1.149453928e-26
3.941508973e-27
7.973870413e-27
1.0920763e-26
1.046697706e-26
7.557807338e-27
9.864327999e-27
8.838862851e-27
8.778662527e-27
1.025471602e-26
1.051863679e-26
7.329238678e-27
7.252597734e-27
4.452873249e-27
8.32041002e-27
3.878156688e-27
4.627402856e-27
1.82495484e-27
6.230735809e-27
3.115391306e-27
6.996925661e-27
5.613962335e-27
4.377405585e-27
7.041411916e-27
2.706645753e-27
3.311541016e-27
1.141853093e-26
1.06801539e-26
9.505426767e-27
9.2839151e-27
1.100825863e-26
2.175097414e-27
3.043837097e-27
-1.590661927e-27
1.051124272e-26
3.622320143e-27
5.916000121e-27
6.975738748e-27
6.20819506e-27
4.234693077e-27
1.897445499e-27
2.430874899e-27
2.733600366e-27
2.101939624e-27
6.557791459e-27
8.906591451e-27
7.370112426e-27
8.829337565e-27
2.493316944e-27
1.355973505e-26
2.58963742e-27
3.840939786e-27
7.996546026e-27
-3.254652328e-27
1.833425869e-28
-3.611731071e-27
2.88841607e-27
-3.656409266e-28
-7.817920133e-27
-5.772085481e-27
2.196156583e-28
2.276489938e-27
-5.450857167e-28
-7.912204853e-28
-3.204250258e-27
-2.72846959e-27
-4.866876772e-27
7.783784867e-29
-2.263506559e-27
6.232433338e-28
-4.958742589e-27
-4.144881996e-27
-3.954940758e-27
-7.000378436e-28
-2.567564797e-27
-4.1259364e-27
-4.098742802e-27
-4.497890982e-27
-5.291279705e-27
-4.787473225e-28
-1.26528863e-27
-4.359598037e-27
-5.169643745e-27
-2.611783353e-27
-6.156022579e-27
-3.782167415e-27
-3.41789497e-27
-4.450828239e-27
-2.046339147e-28
-2.653174815e-27
-1.473517221e-27
-3.013819188e-27
-5.550201271e-27
-4.014026638e-27
-1.682909444e-27
-1.59202008e-27
-4.783888074e-28
-1.632929455e-27
-2.29766751e-27
-1.966569943e-27
-3.077854196e-27
-1.517347286e-27
-4.98968635e-27
-1.184575138e-27
-3.776248786e-27
-3.489598236e-27
-1.356658499e-27
-1.401957081e-27
-2.908294591e-27
-2.123298131e-28
-1.615666472e-27
-2.425368487e-27
-2.02132965e-27
3.781409687e-28
-2.544317972e-27
-5.10821887e-28
-1.319012871e-27
-3.110689061e-27
-4.812061107e-27
-1.93841654e-27
-3.135322873e-27
-3.14729569e-27
-4.91607087e-28
8.038597325e-28
-1.911783025e-27
-8.378764648e-27
-1.915849855e-27
-5.454139871e-28
7.122926148e-28
-9.163488241e-28
-1.042264668e-27
-1.913062809e-27
3.693457598e-28
-2.986799022e-27
-2.045555836e-27
-7.721182517e-28
-1.875289478e-27
-1.885962416e-27
4.424447913e-28
7.930270581e-27
-6.276548683e-29
-5.409756001e-28
)
;

boundaryField
{
    inlet
    {
        type            calculated;
        value           uniform 0;
    }
    outlet
    {
        type            calculated;
        value           uniform -3.821494919e-28;
    }
    wall
    {
        type            empty;
    }
}


// ************************************************************************* //
