/*--------------------------------*- C++ -*----------------------------------*\
  =========                 |
  \\      /  F ield         | OpenFOAM: The Open Source CFD Toolbox
   \\    /   O peration     | Website:  https://openfoam.org
    \\  /    A nd           | Version:  7
     \\/     M anipulation  |
\*---------------------------------------------------------------------------*/
FoamFile
{
    version     2.0;
    format      ascii;
    class       volScalarField;
    location    "0.000558243009";
    object      ddt0(rho,K);
}
// * * * * * * * * * * * * * * * * * * * * * * * * * * * * * * * * * * * * * //

dimensions      [1 -1 -3 0 0 0 0];

internalField   nonuniform List<scalar> 
1500
(
619.2150863
3042.048545
4944.557343
7075.535604
8780.35586
10857.26401
12123.2301
13651.10555
14339.11667
15069.59259
15133.09469
14983.57552
14366.74729
13386.47112
12074.04217
10428.33904
8519.185319
6404.899303
4142.292286
1799.19672
-556.5770507
-2861.290736
-5056.140984
-7089.644255
-8919.522386
-10513.4212
-11849.19308
-12914.5069
-13705.88937
-14227.29158
-14488.83659
-14503.95555
-14288.90165
-13860.93305
-13235.62532
-12428.95034
-11455.43706
-10327.15903
-9055.974331
-7653.872362
-6133.206789
-4508.128424
-2795.192476
-1013.642686
814.0666822
2662.463386
4503.461671
6306.888674
8041.43224
9675.598209
11178.63786
12521.71371
13678.76408
14627.22528
15348.96279
15830.37073
16062.94166
16043.51267
15773.9569
15261.20055
14517.01304
13557.62736
12403.22223
11077.46112
9606.894387
8020.172555
6347.309662
4618.919056
2865.331193
1115.74332
-602.5684815
-2264.98436
-3850.158427
-5340.479481
-6722.344689
-7986.252702
-9126.693279
-10141.84903
-11033.08795
-11804.44231
-12461.86006
-13012.4675
-13463.9231
-13823.6184
-14098.3899
-14293.97141
-14414.35376
-14461.89351
-14437.40003
-14340.04693
-14167.61515
-13916.86563
-13583.89919
-13164.56521
-12654.88812
-12051.48772
-11351.95871
-10555.18313
-9661.575692
-8673.248035
-7594.082714
-6429.722189
-5187.478294
-3876.17404
-2505.933892
-1087.938655
365.8340414
1842.867389
3330.343938
4815.354754
6285.070185
7726.871244
9128.443848
10477.84399
11763.54345
12974.46716
14100.03743
15130.23011
16055.65107
16867.6397
17558.39801
18121.12943
18550.19006
18841.24102
18991.37982
18999.25045
18865.11453
18590.88012
18180.09207
17637.87742
16970.85387
16187.01002
15295.56797
14306.83993
13232.08487
12083.37398
10873.46909
9615.712924
8323.927411
7012.312329
5695.334357
4387.594678
3103.664779
1857.880146
664.0879618
-464.6525349
-1516.412034
-2480.763301
-3349.165912
-4115.342098
-4775.616284
-5329.191278
-5778.333879
-6128.444986
-6387.996379
-6568.320745
-6683.255281
-6748.643618
-6781.71443
-6800.36681
-6822.392748
-6864.682467
-6942.462198
-7068.605745
-7253.064428
-7502.457102
-7819.847797
-8204.726147
-8653.195266
-9158.354084
-9710.84713
-10299.54175
-10912.28081
-11536.65327
-12160.7224
-12773.65425
-13366.19877
-13930.98777
-14462.63013
-14957.60595
-15413.97882
-15830.96264
-16208.39367
-16546.16746
-16843.7021
-17099.48548
-17310.75398
-17473.3356
-17581.67313
-17629.02406
-17607.81687
-17510.13068
-17328.2559
-17055.28954
-16685.72025
-16215.96383
-15644.81608
-14973.79757
-14207.37155
-13353.01799
-12421.15115
-11424.86558
-10379.49615
-9301.984005
-8210.046663
-7121.169065
-6051.458085
-5014.4339
-4019.867792
-3072.808744
-2172.964689
-1314.609188
-487.1646911
323.4369047
1132.59847
1954.200953
2797.269033
3662.520209
4539.277843
5403.312803
6216.20313
6926.748853
7474.835861
7797.90841
7839.892539
7562.029965
6954.683006
6048.776006
4925.24575
3720.678591
2627.365528
1886.218169
1771.572085
2567.578821
4536.995238
7883.974738
12714.32309
18995.19012
26524.23248
34897.46759
43521.86034
51573.49717
58150.749
62066.85964
62487.49914
57934.42433
48450.5678
32349.08321
11221.26018
-23340.70294
-32558.95989
-33676.547
-35640.61941
-37777.75514
-39747.6334
-41849.72719
-43889.3742
-45978.34032
-48057.37228
-50151.69171
-52251.24236
-54357.92815
-56470.47153
-58588.18652
-60710.3006
-62836.03089
-64964.57689
-67095.12595
-69226.84974
-71358.90527
-73490.43551
-75620.56931
-77748.42075
-79873.08972
-81993.66324
-84109.21391
-86218.8008
-88321.4693
-90416.25188
-92502.16796
-94578.22314
-96643.41115
-98696.71291
-100737.0976
-102763.5221
-104774.9299
-106770.2549
-108748.4196
-110708.3332
-112648.8962
-114568.9983
-116467.5185
-118343.3257
-120195.2795
-122022.2298
-123823.0174
-125596.4747
-127341.4261
-129056.6866
-130741.065
-132393.3619
-134012.3715
-135596.8816
-137145.6728
-138657.5212
-140131.1975
-141565.4666
-142959.0889
-144310.822
-145619.4188
-146883.6289
-148102.2002
-149273.8775
-150397.4032
-151471.52
-152494.9693
-153466.4914
-154384.8275
-155248.7196
-156056.9107
-156808.145
-157501.1693
-158134.734
-158707.5917
-159218.4997
-159666.2195
-160049.5163
-160367.1624
-160617.9369
-160800.6238
-160914.0149
-160956.9109
-160928.1188
-160826.4565
-160650.7512
-160399.8396
-160072.5697
-159667.8003
-159184.4031
-158621.2616
-157977.2726
-157251.3475
-156442.4116
-155549.4052
-154571.2845
-153507.0222
-152355.607
-151116.0454
-149787.3619
-148368.6008
-146858.8242
-145257.1151
-143562.5774
-141774.3354
-139891.5358
-137913.3467
-135838.96
-133667.5909
-131398.4793
-129030.8899
-126564.112
-123997.4615
-121330.2809
-118561.9395
-115691.8343
-112719.3911
-109644.0649
-106465.3387
-103182.7266
-99795.77393
-96304.05561
-92707.1791
-89004.78467
-85196.54429
-81282.16324
-77261.3813
-73133.97225
-68899.7447
-64558.54293
-60110.24635
-55554.77165
-50892.07188
-46122.13765
-41244.9973
-36260.71662
-31169.40116
-25971.19553
-20666.28385
-15254.89051
-9737.280438
-4113.758934
1615.327079
7449.58841
13388.59449
19431.87155
25578.90296
31829.12924
38181.94604
44636.70482
51192.71408
57849.23677
64605.48968
71460.64486
78413.82795
85464.1194
92610.55297
99852.11356
107187.7402
114616.3254
122136.712
129747.6952
137448.0225
145236.3914
153111.4508
161071.8007
169115.991
177242.5211
185449.8421
193736.3525
202100.4004
210540.2844
219054.2507
227640.4934
236297.1556
245022.3284
253814.0499
262670.3064
271589.0313
280568.1047
289605.3531
298698.55
307845.415
317043.6134
326290.7571
335584.4029
344922.053
354301.1545
363719.0999
373173.2268
382660.8157
392179.0923
401725.2271
411296.3332
420889.4681
430501.6326
440129.7703
449770.7685
459421.4576
469078.6109
478738.9436
488399.1139
498055.7228
507705.312
517344.3675
526969.3164
536576.5263
546162.3081
555722.9148
565254.5404
574753.3213
584215.3349
593636.6004
603013.0799
612340.6764
621615.2351
630832.5423
639988.3272
649078.262
658097.9612
667042.981
675908.8212
684690.9259
693384.6818
701985.4201
710488.4164
718888.8921
727182.0131
735362.8912
743426.5867
751368.1065
759182.4052
766864.3872
774408.9067
781810.7685
789064.7313
796165.5057
803107.7551
809886.1015
816495.123
822929.3559
829183.2967
835251.4037
841128.0997
846807.772
852284.7758
857553.4376
862608.0536
867442.8952
872052.2116
876430.2313
880571.1641
884469.207
888118.545
891513.3556
894647.8073
897516.0793
900112.3171
902430.8056
904465.4156
906211.1165
907661.1835
908809.653
909676.4774
910036.9036
909667.4119
908693.9517
907522.4397
906383.7602
905154.6823
903747.4411
902074.8635
900043.4779
897559.0519
894525.0189
890841.6305
886412.8752
881130.7903
874873.448
868025.654
861017.0354
853842.1345
846559.1229
839070.2417
831130.2875
822646.8626
813626.6588
804063.3984
793951.7499
783286.4061
772061.9366
760273.0842
747914.6066
734981.3602
721468.2817
707370.4074
692682.8762
677400.9428
661519.9849
645035.5139
627943.1837
610238.7997
591918.33
572977.912
553413.8649
533222.7008
512401.1317
490946.0804
468854.6899
446124.3353
422752.6346
398737.455
374076.9263
348769.4508
322813.7141
296208.6934
268953.6697
241048.2369
212492.3124
183286.149
153430.3434
122925.8477
91773.97722
59976.4227
27535.26071
-5547.038601
-39267.59997
-73623.13292
-108609.9241
-144223.8264
-180460.2509
-217314.1569
-254780.0424
-292851.9374
-331523.395
-370787.4819
-410636.7717
-451063.3373
-492058.744
-533614.0429
-575719.763
-618365.9067
-661541.9435
-705236.8042
-749438.8783
-794136.0084
-839315.485
-884964.0466
-931067.8772
-977612.6012
-1024583.286
-1071964.439
-1119740.013
-1167893.4
-1216407.44
-1265264.421
-1314446.084
-1363933.63
-1413707.723
-1463748.5
-1514035.582
-1564548.08
-1615264.61
-1666163.304
-1717221.827
-1768417.396
-1819726.794
-1871126.393
-1922592.179
-1974099.774
-2025624.465
-2077141.237
-2128624.803
-2180049.638
-2231390.027
-2282620.1
-2333713.879
-2384645.33
-2435388.418
-2485917.163
-2536205.703
-2586228.36
-2635959.713
-2685374.677
-2734448.577
-2783157.242
-2831477.092
-2879385.236
-2926859.571
-2973878.887
-3020422.974
-3066472.736
-3112010.3
-3157019.128
-3201484.131
-3245391.768
-3288730.153
-3331489.133
-3373660.363
-3415237.353
-3456215.483
-3496591.986
-3536365.875
-3575537.81
-3614109.89
-3652085.347
-3689468.133
-3726262.359
-3762471.275
-3798096.867
-3833138.758
-3867592.223
-3901446.751
-3934683.994
-3967275.435
-3999179.336
-4030337.474
-4060671.636
-4090079.386
-4118429.59
-4145557.58
-4171260.119
-4195290.294
-4217352.545
-4237098.059
-4254120.81
-4267954.567
-4278071.052
-4283879.935
-4284730.54
-4279915.418
-4268676.247
-4250211.754
-4223687.864
-4188248.632
-4143028.69
-4087166.862
-4019818.849
-3940169.44
-3847443.378
-3740913.72
-3619910.093
-3483818.168
-3332088.1
-3164203.445
-2979726.053
-2778122.361
-2558823.063
-2320948.101
-2063089.786
-1782930.993
-1480308.9
-1161389.437
-832930.8643
-491381.5631
-124847.1582
265928.6203
679188.8651
1115376.223
1573945.522
2056013.879
2559937.464
3086072.984
3644372.503
4232299.899
4834927.613
5453996.953
6098655.334
6768781.108
7463707.845
8178908.522
8916606.376
9674980.015
10438747.67
11198344.8
11964935.17
12729970.41
13484999.24
14221794.87
14932221.3
15607444.76
16242031.44
16838168.87
17395906.25
17910760.39
18385666.8
18823776.54
19226720.95
19600751.67
19946913.93
20262110.48
20547137.18
20803695.45
21032956.95
21240614.6
21431609.33
21612055.76
21788658.79
21954221.38
22098044.41
22228391.23
22352072.62
22466308.36
22571183.68
22667141.43
22754770.05
22834422.73
22906669.15
22972383.29
23032029.3
23086001.35
23134691.47
23178412.01
23217447.29
23252035.68
23282390.7
23308698.14
23331123.45
23349814.07
23364902.52
23376508.8
23384742.2
23389702.63
23391481.86
23390164.77
23385829.77
23378549.51
23368391.72
23355419.49
23339691.7
23321263.45
23300186.29
23276508.56
23250275.62
23221530.08
23190312.03
23156659.19
23120607.08
23082189.22
23041437.23
22998380.98
22953048.68
22905467.05
22855661.36
22803655.56
22749472.37
22693133.33
22634658.91
22574068.56
22511380.78
22446613.21
22379782.62
22310905.03
22239995.73
22167069.33
22092139.82
22015220.55
21936324.38
21855463.61
21772650.06
21687895.11
21601209.73
21512604.46
21422089.52
21329674.75
21235369.71
21139183.65
21041125.55
20941204.13
20839427.9
20735805.15
20630343.96
20523052.24
20413937.74
20303008.06
20190270.65
20075732.86
19959401.91
19841284.92
19721388.95
19599720.94
19476287.79
19351096.35
19224153.4
19095465.69
18965039.93
18832882.83
18699001.03
18563401.23
18426090.07
18287074.23
18146360.34
18003955.06
17859865.05
17714097.04
17566657.76
17417554.11
17266792.9
17114381
16960325.35
16804632.88
16647310.62
16488365.65
16327805.09
16165636.13
16001866.04
15836502.14
15669551.83
15501022.56
15330921.89
15159257.44
14986036.9
14811268.05
14634958.76
14457116.97
14277750.71
14096868.12
13914477.39
13730586.82
13545204.82
13358339.87
13170000.53
12980195.51
12788933.55
12596223.54
12402074.44
12206495.32
12009495.35
11811083.8
11611270.03
11410063.52
11207473.85
11003510.7
10798183.85
10591503.2
10383478.72
10174120.54
9963438.851
9751443.973
9538146.325
9323556.438
9107684.948
8890542.601
8672140.253
8452488.865
8231599.511
8009483.373
7786151.743
7561616.023
7335887.725
7108978.47
6880899.994
6651664.14
6421282.862
6189768.227
5957132.412
5723387.705
5488546.507
5252621.327
5015624.792
4777569.634
4538468.701
4298334.951
4057181.455
3815021.395
3571868.067
3327734.876
3082635.342
2836583.095
2589591.878
2341675.547
2092848.069
1843123.523
1592516.101
1341040.106
1088709.954
835540.1742
581545.4049
326740.3981
71140.01732
-185240.7618
-442386.852
-700283.0546
-958914.0594
-1218264.445
-1478318.676
-1739061.111
-2000475.993
-2262547.455
-2525259.52
-2788596.1
-3052540.997
-3317077.901
-3582190.393
-3847861.945
-4114075.917
-4380815.561
-4648064.021
-4915804.327
-5184019.407
-5452692.075
-5721805.04
-5991340.901
-6261282.15
-6531611.173
-6802310.247
-7073361.545
-7344747.131
-7616448.964
-7888448.898
-8160728.683
-8433269.963
-8706054.279
-8979063.066
-9252277.659
-9525679.288
-9799249.083
-10072968.07
-10346817.18
-10620777.23
-10894828.95
-11168952.98
-11443129.83
-11717339.94
-11991563.64
-12265781.18
-12539972.68
-12814118.21
-13088197.71
-13362191.05
-13636077.98
-13909838.19
-14183451.27
-14456896.7
-14730153.91
-15003202.19
-15276020.8
-15548588.87
-15820885.47
-16092889.57
-16364580.08
-16635935.81
-16906935.49
-17177557.78
-17447781.26
-17717584.42
-17986945.7
-18255843.45
-18524255.94
-18792161.39
-19059537.93
-19326363.64
-19592616.52
-19858274.5
-20123315.47
-20387717.22
-20651457.53
-20914514.07
-21176864.48
-21438486.34
-21699357.18
-21959454.46
-22218755.62
-22477238.02
-22734878.99
-22991655.81
-23247545.73
-23502525.93
-23756573.59
-24009665.81
-24261779.69
-24512892.28
-24762980.6
-25012021.65
-25259992.4
-25506869.78
-25752630.73
-25997252.14
-26240710.89
-26482983.87
-26724047.91
-26963879.88
-27202456.6
-27439754.92
-27675751.66
-27910423.66
-28143747.75
-28375700.76
-28606259.55
-28835400.96
-29063101.88
-29289339.18
-29514089.77
-29737330.57
-29959038.53
-30179190.64
-30397763.89
-30614735.34
-30830082.04
-31043781.13
-31255809.75
-31466145.12
-31674764.47
-31881645.12
-32086764.41
-32290099.76
-32491628.65
-32691328.62
-32889177.27
-33085152.28
-33279231.4
-33471392.39
-33661613.14
-33849871.77
-34036146.33
-34220414.83
-34402655.55
-34582846.99
-34760967.63
-34936996.01
-35110910.85
-35282690.91
-35452315.11
-35619762.46
-35785012.12
-35948043.36
-36108835.59
-36267368.33
-36423621.27
-36577574.22
-36729207.13
-36878500.13
-37025433.46
-37169987.55
-37312142.97
-37451880.46
-37589180.93
-37724025.45
-37856395.28
-37986271.84
-38113636.76
-38238471.82
-38360759.03
-38480480.55
-38597618.77
-38712156.28
-38824075.85
-38933360.48
-39039993.38
-39143957.97
-39245237.89
-39343817.01
-39439679.42
-39532809.45
-39623191.66
-39710810.84
-39795652.04
-39877700.54
-39956941.88
-40033361.84
-40106946.47
-40177682.08
-40245555.23
-40310552.76
-40372661.77
-40431869.65
-40488164.06
-40541532.93
-40591964.49
-40639447.24
-40683970
-40725521.85
-40764092.2
-40799670.72
-40832247.43
-40861812.62
-40888356.92
-40911871.23
-40932346.83
-40949775.24
-40964148.37
-40975458.41
-40983697.91
-40988859.71
-40990937.03
-40989923.38
-40985812.63
-40978598.99
-40968277.01
-40954841.57
-40938287.92
-40918611.63
-40895808.66
-40869875.28
-40840808.14
-40808604.25
-40773260.95
-40734775.96
-40693147.37
-40648373.62
-40600453.5
-40549386.2
-40495171.25
-40437808.55
-40377298.39
-40313641.4
-40246838.6
-40176891.38
-40103801.5
-40027571.09
-39948202.67
-39865699.1
-39780063.64
-39691299.93
-39599411.97
-39504404.13
-39406281.17
-39305048.21
-39200710.76
-39093274.7
-38982746.26
-38869132.08
-38752439.13
-38632674.79
-38509846.79
-38383963.23
-38255032.59
-38123063.68
-37988065.73
-37850048.28
-37709021.28
-37564995.01
-37417980.1
-37267987.57
-37115028.78
-36959115.42
-36800259.57
-36638473.62
-36473770.33
-36306162.79
-36135664.45
-35962289.07
-35786050.76
-35606963.95
-35425043.43
-35240304.26
-35052761.88
-34862432.01
-34669330.69
-34473474.29
-34274879.47
-34073563.2
-33869542.74
-33662835.68
-33453459.85
-33241433.4
-33026774.77
-32809502.67
-32589636.06
-32367194.21
-32142196.63
-31914663.11
-31684613.67
-31452068.61
-31217048.46
-30979573.99
-30739666.23
-30497346.4
-30252635.98
-30005556.66
-29756130.35
-29504379.15
-29250325.41
-28993991.71
-28735400.78
-28474575.4
-28211538.74
-27946313.89
-27678924.72
-27409393.99
-27137747.96
-26864005.21
-26588200.43
-26310339.46
-26030474.65
-25748602.23
-25464751.46
-25179024.27
-24891182.12
-24601967.53
-24309455.79
-24019582.67
-23713214.88
-23449638.64
-23070793.34
-22921686.97
-22402460.87
-22339998.28
-21757243.2
-21795480.88
-20714525.3
-17085959.81
-15022271.33
-9886890.184
-6156904.231
-2555486.811
644788.5486
3470837.476
5922503.458
8005820.497
9733192.255
11122144.9
12193794.04
12972059.51
13482614.07
13752021.71
13806993.07
13673762.57
13377594.45
12942416.9
12390574.95
11742690.48
11017613.59
10232448.63
9402637.73
8542082.738
7663290.495
6777525.262
5894956.46
5024790.867
4175383.018
3354318.546
2568469.119
1824020.159
1126473.268
480628.9007
-109445.9547
-640458.2856
-1109931.431
-1516242.854
-1858652.378
-2137315.625
-2353279.476
-2508457.431
-2605584.029
-2648148.755
-2640311.137
-2586799.669
-2492797.963
-2363822.145
-2205593.73
-2023912.211
-1824531.652
-1613044.762
-1394777.896
-1174699.479
-957343.5372
-746749.8482
-546420.7414
-359294.6402
-187735.4992
-33536.73182
102061.6262
218344.5896
315084.6693
392496.9367
451188.7399
492105.9136
516477.0905
525757.6424
521574.4997
505672.926
479866.1673
445988.6499
405853.3167
361213.511
313729.7056
264941.3369
216243.7938
168870.6352
123881.0156
82152.15057
44376.63729
11064.38027
-17451.27389
-41003.60164
-59579.27665
-73302.40787
-82416.43177
-87264.51476
-88269.07827
-85911.09409
-80709.74294
-73202.99174
-63929.58098
-53412.82949
-42146.58453
-30583.55207
-19126.14073
-8119.866008
2150.72723
11463.74722
19659.42397
26637.61905
32353.65663
36812.79089
40063.64457
42190.94369
43307.87758
43548.38478
43059.63944
41994.97913
40507.47407
38744.29261
36841.97716
34922.69761
33091.50334
31434.56391
30018.34573
28889.64347
28076.36429
27588.94143
27422.24617
27557.85902
27966.56385
28610.93773
29447.91815
30431.24482
31513.69072
32649.02005
33793.62761
34907.83232
35956.82171
36911.25567
37747.55374
38447.90101
39000.01497
39396.72232
39635.39414
39717.28798
39646.84264
39430.96693
39078.35579
38598.86055
38002.93476
37301.1669
36503.90636
35620.98259
34661.51337
33633.79277
32545.24851
31402.45613
30211.19688
28976.54817
27702.99388
26394.5453
25054.86493
23687.38709
22295.4303
20882.29841
19451.36932
18006.16973
16550.43644
15088.16241
13623.62982
12161.42894
10706.46188
9263.93354
7839.326831
6438.363721
5066.951893
3731.116874
2436.922093
1190.377016
-2.663795302
-1136.608069
-2206.236093
-3206.811152
-4134.185901
-4984.900077
-5756.268996
-6446.457091
-7054.534707
-7580.518633
-8025.392779
-8391.110033
-8680.576997
-8897.62146
-9046.944383
-9134.059468
-9165.22178
-9147.347163
-9087.925187
-8994.926882
-8876.70809
-8741.909863
-8599.356073
-8457.948354
-8326.558698
-8213.91913
-8128.509079
-8078.439893
-8071.337098
-8114.222508
-8213.395826
-8374.318671
-8601.503114
-8898.407063
-9267.340209
-9709.382846
-10224.32098
-10810.60002
-11465.30091
-12184.1395
-12961.49067
-13790.43902
-14662.85447
-15569.49303
-16500.12074
-17443.65801
-18388.34188
-19321.90165
-20231.74424
-21105.14496
-21929.43929
-22692.21074
-23381.47143
-23985.83132
-24494.65324
-24898.19212
-25187.71547
-25355.60563
-25395.44245
-25302.06712
-25071.62699
-24701.60131
-24190.80965
-23539.40219
-22748.83497
-21821.83298
-20762.34743
-19575.51584
-18267.63772
-16846.17535
-15319.80926
-13698.49701
-11993.84382
-10219.10787
-8390.707321
-6636.505605
-3635.576899
)
;

boundaryField
{
    inlet
    {
        type            calculated;
        value           uniform 7.492484167;
    }
    outlet
    {
        type            calculated;
        value           uniform -3634.650332;
    }
    wall
    {
        type            empty;
    }
}


// ************************************************************************* //
