/*--------------------------------*- C++ -*----------------------------------*\
  =========                 |
  \\      /  F ield         | OpenFOAM: The Open Source CFD Toolbox
   \\    /   O peration     | Website:  https://openfoam.org
    \\  /    A nd           | Version:  7
     \\/     M anipulation  |
\*---------------------------------------------------------------------------*/
FoamFile
{
    version     2.0;
    format      ascii;
    class       volScalarField;
    location    "0.000558243009";
    object      ddt0(rho,C7H14OOHO2);
}
// * * * * * * * * * * * * * * * * * * * * * * * * * * * * * * * * * * * * * //

dimensions      [1 -3 -1 0 0 0 0];

internalField   nonuniform List<scalar> 
1500
(
-5.853679762e-15
-1.741150253e-14
-2.592119779e-14
-2.593809998e-14
-1.963166535e-14
-1.198035247e-14
-6.134376006e-15
-2.710749097e-15
-1.061911624e-15
-3.900292736e-16
-1.600879871e-16
-1.016582369e-16
-1.005631483e-16
-1.151525846e-16
-1.316092757e-16
-1.457311871e-16
-1.562799489e-16
-1.628994681e-16
-1.655255377e-16
-1.642194148e-16
-1.591226629e-16
-1.504418017e-16
-1.384393023e-16
-1.234258038e-16
-1.057525011e-16
-8.580383994e-17
-6.399085872e-17
-4.074544611e-17
-1.651555451e-17
8.238839869e-18
3.304945039e-17
5.744361965e-17
8.094906033e-17
1.030998888e-16
1.234442137e-16
1.41553333e-16
1.570323396e-16
1.6953153e-16
1.787580312e-16
1.844867536e-16
1.865697906e-16
1.849434485e-16
1.796322463e-16
1.707494565e-16
1.584940359e-16
1.431440806e-16
1.250472074e-16
1.046084851e-16
8.227668248e-17
5.852965721e-17
3.385971143e-17
8.759619164e-18
-1.629009308e-17
-4.083221403e-17
-6.444204431e-17
-8.673467657e-17
-1.073704324e-16
-1.260586271e-16
-1.425598737e-16
-1.566871318e-16
-1.683056824e-16
-1.773321416e-16
-1.837326043e-16
-1.875199222e-16
-1.887501405e-16
-1.875180837e-16
-1.83952143e-16
-1.7820836e-16
-1.704639728e-16
-1.609106709e-16
-1.497478606e-16
-1.371762799e-16
-1.233923073e-16
-1.08583284e-16
-9.292410184e-17
-7.657520453e-17
-5.968205891e-17
-4.237601082e-17
-2.47763443e-17
-6.993268936e-18
1.086851031e-17
2.870600663e-17
4.641431589e-17
6.388346692e-17
8.099602255e-17
9.762562912e-17
1.136366189e-16
1.288846959e-16
1.432186533e-16
1.564829983e-16
1.685213216e-16
1.791802031e-16
1.883134335e-16
1.957863138e-16
2.014798181e-16
2.052943909e-16
2.071532132e-16
2.070047657e-16
2.04824588e-16
2.006161587e-16
1.944108785e-16
1.862671934e-16
1.762689366e-16
1.645230174e-16
1.511566178e-16
1.363140774e-16
1.201536597e-16
1.028443717e-16
8.456299069e-17
6.549141002e-17
4.581436907e-17
2.571757411e-17
5.386182896e-18
-1.49964341e-17
-3.524975006e-17
-5.5197078e-17
-7.466660839e-17
-9.349258109e-17
-1.115166422e-16
-1.285893939e-16
-1.445721102e-16
-1.593385402e-16
-1.727767072e-16
-1.84790582e-16
-1.953015113e-16
-2.042493002e-16
-2.115928714e-16
-2.173104587e-16
-2.213993387e-16
-2.238751382e-16
-2.247707901e-16
-2.241352395e-16
-2.220320068e-16
-2.185377151e-16
-2.137406679e-16
-2.077395437e-16
-2.006422246e-16
-1.925647518e-16
-1.836303444e-16
-1.739684057e-16
-1.637134024e-16
-1.530035065e-16
-1.419788952e-16
-1.307796176e-16
-1.195430038e-16
-1.084006101e-16
-9.747477475e-17
-8.687490822e-17
-7.669370873e-17
-6.700352138e-17
-5.785310573e-17
-4.926508022e-17
-4.123430644e-17
-3.372742135e-17
-2.668370231e-17
-2.001732743e-17
-1.362105806e-17
-7.371208085e-18
-1.133732271e-18
5.228891531e-18
1.185032852e-17
1.885304667e-17
2.634141064e-17
3.439566193e-17
4.306718454e-17
5.237541342e-17
6.230659669e-17
7.281454289e-17
8.382331754e-17
9.523171455e-17
1.069191933e-16
1.187528451e-16
1.305948561e-16
1.423099086e-16
1.537719311e-16
1.648696611e-16
1.755106094e-16
1.856231164e-16
1.951563982e-16
2.040786392e-16
2.123734054e-16
2.200347849e-16
2.270617979e-16
2.334526888e-16
2.391997031e-16
2.442849002e-16
2.486774448e-16
2.52332619e-16
2.551926777e-16
2.571894231e-16
2.582482606e-16
2.582933491e-16
2.572533946e-16
2.550676234e-16
2.516915021e-16
2.471018151e-16
2.413008063e-16
2.343191676e-16
2.262176978e-16
2.170874668e-16
2.070483893e-16
1.962460144e-16
1.848464136e-16
1.730290913e-16
1.609779013e-16
1.48870261e-16
1.368651172e-16
1.250905904e-16
1.136325066e-16
1.025254028e-16
9.174778037e-17
8.122336027e-17
7.082977361e-17
6.041554166e-17
4.982517101e-17
3.89309533e-17
2.766868182e-17
1.607307334e-17
4.307470667e-18
-7.318231774e-18
-1.834757256e-17
-2.820064546e-17
-3.622377398e-17
-4.176631106e-17
-4.428152732e-17
-4.344442689e-17
-3.927510473e-17
-3.225250268e-17
-2.34007501e-17
-1.432919864e-17
-7.208371091e-18
-4.667557613e-18
-9.606012925e-18
-2.491809732e-17
-5.314316468e-17
-9.606236647e-17
-1.542758488e-16
-2.268038704e-16
-3.107625913e-16
-4.011685906e-16
-4.909241587e-16
-5.710280842e-16
-6.310424163e-16
-6.598327616e-16
-6.46576444e-16
-5.82090485e-16
-4.604912168e-16
-2.816749364e-16
-5.309064873e-17
2.126983684e-16
3.77775834e-16
3.97612623e-16
4.16740367e-16
4.357047323e-16
4.546178758e-16
4.734848406e-16
4.922783817e-16
5.109877675e-16
5.296013013e-16
5.4810871e-16
5.664980881e-16
5.84754937e-16
6.028648479e-16
6.208110878e-16
6.385770376e-16
6.561464223e-16
6.735014431e-16
6.906241838e-16
7.074961394e-16
7.240987719e-16
7.404125581e-16
7.564165138e-16
7.720903486e-16
7.874122218e-16
8.023608737e-16
8.169116306e-16
8.310417646e-16
8.447260221e-16
8.57939994e-16
8.706561043e-16
8.828481411e-16
8.944871939e-16
9.055444416e-16
9.15989977e-16
9.257915563e-16
9.349173875e-16
9.433340154e-16
9.510059072e-16
9.578972768e-16
9.639708075e-16
9.691872942e-16
9.735062142e-16
9.768852811e-16
9.792814726e-16
9.806487948e-16
9.809397965e-16
9.801059417e-16
9.780956901e-16
9.748552765e-16
9.703297754e-16
9.644607103e-16
9.571879649e-16
9.484478311e-16
9.381750665e-16
9.263006574e-16
9.127525782e-16
8.974553771e-16
8.803302013e-16
8.612948386e-16
8.402630391e-16
8.171435223e-16
7.918419643e-16
7.642579089e-16
7.342871185e-16
7.018188582e-16
6.667381109e-16
6.289223592e-16
5.882430713e-16
5.445654356e-16
4.97745823e-16
4.476339296e-16
3.940703503e-16
3.368871694e-16
2.75905131e-16
2.109365638e-16
1.417802273e-16
6.822484044e-17
-9.955452242e-18
-9.299973416e-17
-1.811631063e-16
-2.747164921e-16
-3.739485904e-16
-4.791681618e-16
-5.907023322e-16
-7.089036133e-16
-8.341461086e-16
-9.668320741e-16
-1.107390918e-15
-1.256282387e-15
-1.414000666e-15
-1.581075253e-15
-1.75807442e-15
-1.945609261e-15
-2.144336101e-15
-2.354960966e-15
-2.578244108e-15
-2.815002752e-15
-3.066118125e-15
-3.332539033e-15
-3.615288278e-15
-3.915468456e-15
-4.234267473e-15
-4.572968096e-15
-4.932951426e-15
-5.315709034e-15
-5.722848789e-15
-6.156103595e-15
-6.617343513e-15
-7.108584192e-15
-7.63199787e-15
-8.189925655e-15
-8.784889421e-15
-9.419603992e-15
-1.009699252e-14
-1.082019898e-14
-1.159260471e-14
-1.241784219e-14
-1.329981522e-14
-1.424271088e-14
-1.525102179e-14
-1.632956215e-14
-1.748348808e-14
-1.871831653e-14
-2.003994554e-14
-2.14546761e-14
-2.296923037e-14
-2.459077734e-14
-2.632695017e-14
-2.81858718e-14
-3.017617383e-14
-3.230702e-14
-3.458812777e-14
-3.702978882e-14
-3.964289135e-14
-4.243893769e-14
-4.543006507e-14
-4.862906535e-14
-5.204939891e-14
-5.570521245e-14
-5.961135326e-14
-6.378337833e-14
-6.823756762e-14
-7.299092954e-14
-7.806120803e-14
-8.346688133e-14
-8.9227165e-14
-9.536200348e-14
-1.01892066e-13
-1.08838733e-13
-1.162240797e-13
-1.240708573e-13
-1.324024672e-13
-1.412429337e-13
-1.50616867e-13
-1.605494266e-13
-1.710662746e-13
-1.821935277e-13
-1.93957702e-13
-2.063856509e-13
-2.195045008e-13
-2.333415794e-13
-2.479243377e-13
-2.632802709e-13
-2.79436826e-13
-2.964213152e-13
-3.142608171e-13
-3.329820718e-13
-3.526113812e-13
-3.731744949e-13
-3.946965001e-13
-4.172017059e-13
-4.407135216e-13
-4.652543425e-13
-4.908454241e-13
-5.175067606e-13
-5.45256964e-13
-5.741131434e-13
-6.04090781e-13
-6.352036174e-13
-6.674635371e-13
-7.008804509e-13
-7.354621952e-13
-7.712144264e-13
-8.081405243e-13
-8.462415011e-13
-8.855159243e-13
-9.259598337e-13
-9.675666848e-13
-1.010327285e-12
-1.054229751e-12
-1.099259474e-12
-1.145399094e-12
-1.192628485e-12
-1.240924754e-12
-1.290262257e-12
-1.340612619e-12
-1.391944769e-12
-1.44422499e-12
-1.497416984e-12
-1.551481944e-12
-1.606378639e-12
-1.662063519e-12
-1.718490818e-12
-1.775612694e-12
-1.833379339e-12
-1.891739143e-12
-1.950638847e-12
-2.010023698e-12
-2.06983763e-12
-2.130023446e-12
-2.190522996e-12
-2.251277392e-12
-2.312227179e-12
-2.373312571e-12
-2.434473631e-12
-2.495650496e-12
-2.556783601e-12
-2.617813865e-12
-2.678682926e-12
-2.739333344e-12
-2.799708821e-12
-2.859754411e-12
-2.919416713e-12
-2.978644093e-12
-3.03738688e-12
-3.095597558e-12
-3.153230961e-12
-3.210244469e-12
-3.266598193e-12
-3.322255134e-12
-3.377181396e-12
-3.431346349e-12
-3.48472278e-12
-3.537287101e-12
-3.58901948e-12
-3.639904048e-12
-3.689929045e-12
-3.739087008e-12
-3.787374954e-12
-3.834794551e-12
-3.881352312e-12
-3.927059816e-12
-3.971933908e-12
-4.015996923e-12
-4.059276936e-12
-4.101808042e-12
-4.143630598e-12
-4.184791551e-12
-4.225344808e-12
-4.265351511e-12
-4.304880501e-12
-4.344008732e-12
-4.382821692e-12
-4.421413931e-12
-4.459889608e-12
-4.498363065e-12
-4.536959421e-12
-4.575815332e-12
-4.615079634e-12
-4.654914098e-12
-4.695494226e-12
-4.737009089e-12
-4.779670807e-12
-4.823101064e-12
-4.868205114e-12
-4.915692239e-12
-4.96660905e-12
-5.01963661e-12
-5.075090711e-12
-5.133320009e-12
-5.19469685e-12
-5.259622003e-12
-5.328525328e-12
-5.401867218e-12
-5.48014067e-12
-5.563872867e-12
-5.653624461e-12
-5.750170696e-12
-5.856594334e-12
-5.971300842e-12
-6.095000865e-12
-6.22846678e-12
-6.371909285e-12
-6.52630351e-12
-6.692961675e-12
-6.872827244e-12
-7.06689587e-12
-7.276217359e-12
-7.501895544e-12
-7.74508933e-12
-8.007014099e-12
-8.288942785e-12
-8.592206837e-12
-8.918197315e-12
-9.268365386e-12
-9.644223124e-12
-1.004734403e-11
-1.04793633e-11
-1.094197816e-11
-1.143694809e-11
-1.196609473e-11
-1.253130199e-11
-1.31345158e-11
-1.377774408e-11
-1.446305638e-11
-1.51925838e-11
-1.596851872e-11
-1.679311471e-11
-1.766868655e-11
-1.859761031e-11
-1.958232381e-11
-2.062532713e-11
-2.172918373e-11
-2.289652163e-11
-2.413003557e-11
-2.543248919e-11
-2.680671832e-11
-2.825563483e-11
-2.97822313e-11
-3.138958695e-11
-3.308087415e-11
-3.485936672e-11
-3.672844912e-11
-3.869162736e-11
-4.075254111e-11
-4.291497815e-11
-4.518288994e-11
-4.75604097e-11
-5.005187212e-11
-5.266183569e-11
-5.539510712e-11
-5.825676824e-11
-6.125220533e-11
-6.438714127e-11
-6.766767037e-11
-7.110029581e-11
-7.469197019e-11
-7.84501389e-11
-8.238278626e-11
-8.649848548e-11
-9.080645016e-11
-9.531659086e-11
-1.000395735e-10
-1.049868818e-10
-1.10170884e-10
-1.156049031e-10
-1.21303293e-10
-1.272815211e-10
-1.335562602e-10
-1.401454922e-10
-1.470686299e-10
-1.54346664e-10
-1.620023493e-10
-1.700604455e-10
-1.785480448e-10
-1.874950252e-10
-1.969346959e-10
-2.069047279e-10
-2.174485167e-10
-2.286171913e-10
-2.404725908e-10
-2.530917009e-10
-2.665732661e-10
-2.810476744e-10
-2.966917348e-10
-3.137507886e-10
-3.325717902e-10
-3.53652809e-10
-3.777170948e-10
-4.058238696e-10
-4.395340352e-10
-4.81157952e-10
-5.341258364e-10
-6.03541319e-10
-6.970084808e-10
-8.258671237e-10
-1.007037172e-09
-1.265771698e-09
-1.639764729e-09
-2.185278311e-09
-2.986277837e-09
-4.168047022e-09
-5.917470258e-09
-8.513233158e-09
-1.237076856e-08
-1.810911111e-08
-2.665028103e-08
-3.936693016e-08
-5.830153579e-08
-8.649156693e-08
-1.284514598e-07
-1.908863762e-07
-2.837481622e-07
-4.217958648e-07
-6.268991225e-07
-9.314335556e-07
-1.383278519e-06
-2.053161437e-06
-3.045431094e-06
-4.513829154e-06
-6.684527558e-06
-9.889695945e-06
-1.461627762e-05
-2.157664732e-05
-3.181061775e-05
-4.68321413e-05
-6.883939288e-05
-0.0001010142024
-0.0001479464631
-0.0002162323777
-0.0003153117352
-0.0004586312658
-0.0006652473742
-0.0009620131807
-0.00138653198
-0.001991095203
-0.002847863894
-0.004055576776
-0.005748077784
-0.008104926357
-0.01136426685
-0.01583796081
-0.021928697
-0.03014835595
-0.04113629089
-0.05567537565
-0.07470266409
-0.09931031681
-0.130731171
-0.1703019653
-0.2193960213
-0.2793162163
-0.3511386706
-0.4354984498
-0.5323101
-0.6404206706
-0.7571964062
-0.8780414757
-0.9958538374
-1.100357631
-1.177276956
-1.207197243
-1.164025493
-1.012986039
-0.7086234679
-0.1971679218
0.5551298866
1.66231903
2.911452178
5.167202521
7.233297746
8.766547367
6.801507563
6.275148337
1.868911224
-7.127221812
-24.90385294
-53.86301414
-79.71648389
-80.84143627
-62.2033423
-40.22027687
-23.33023129
-13.00888148
-6.581959717
-3.454260176
-1.801240573
-0.9428837209
-0.4753906041
-0.2476133972
-0.1296717366
-0.06860251345
-0.03533184445
-0.01876526285
-0.0100168466
-0.005372999928
-0.002895431805
-0.001567454888
-0.00085400452
-0.0004568136062
-0.0002490199951
-0.0001339413461
-7.254498727e-05
-3.911371397e-05
-2.094490103e-05
-1.111744573e-05
-5.858333061e-06
-3.002295463e-06
-1.427708494e-06
-6.340350039e-07
-2.471064779e-07
-6.686991472e-08
8.467435413e-09
3.246855826e-08
3.448262082e-08
2.880349708e-08
2.167898328e-08
1.664844851e-08
1.226441745e-08
8.503931987e-09
5.808760101e-09
3.914085495e-09
2.603851379e-09
1.711366061e-09
1.111929589e-09
7.151775257e-10
4.548968506e-10
2.863129058e-10
1.782845164e-10
1.097770091e-10
6.678104498e-11
4.008229125e-11
2.368875533e-11
1.374500589e-11
7.795430768e-12
4.291589141e-12
2.266947254e-12
1.12454927e-12
4.998615022e-13
1.730499139e-13
6.04103327e-14
9.296817946e-15
-1.705371793e-14
-2.818474489e-14
-3.062085494e-14
-2.85596e-14
-2.45484493e-14
-2.003376424e-14
-1.576460734e-14
-1.207113442e-14
-9.046973138e-15
-6.663273384e-15
-4.836642192e-15
-3.467306391e-15
-2.458849588e-15
-1.727054176e-15
-1.153129959e-15
-7.643442621e-16
-5.032884816e-16
-3.291631488e-16
-2.137324125e-16
-1.377128091e-16
-8.80107401e-17
-5.584261477e-17
-3.520055202e-17
-2.205325102e-17
-1.373532672e-17
-8.50511891e-18
-5.235535458e-18
-3.203158207e-18
-1.946970081e-18
-1.175045548e-18
-7.0361111e-19
-4.176218493e-19
-2.454614492e-19
-1.428222911e-19
-8.240414907e-20
-4.649382343e-20
-2.623413317e-20
-1.48021899e-20
-8.346947357e-21
-4.693019166e-21
-2.617801451e-21
-1.435796558e-21
-7.622680751e-22
-3.852691423e-22
-1.793616999e-22
-7.081575617e-23
-1.651756978e-23
8.235655389e-24
1.753027323e-23
1.924619246e-23
1.745636612e-23
1.448228639e-23
1.140850445e-23
8.671051815e-24
6.40791166e-24
4.671551014e-24
3.348578224e-24
2.365427664e-24
1.654991975e-24
1.156655206e-24
7.99241148e-25
5.463370761e-25
3.240079759e-25
1.970150291e-25
1.210333114e-25
7.423085851e-26
4.714698894e-26
2.845987968e-26
1.792599905e-26
1.284110411e-26
7.614856323e-27
4.796930522e-27
2.898822749e-27
1.795524046e-27
1.357810338e-27
6.565075402e-28
2.547404282e-28
6.591863869e-29
3.367619442e-28
1.877223008e-28
4.153487251e-29
-4.460812244e-29
-7.393871784e-29
-1.010090173e-28
-7.127767091e-29
-8.792431611e-29
-7.794310973e-29
-5.085754777e-29
-3.485714598e-29
-2.124027833e-29
1.204790929e-29
1.672970488e-29
3.15724808e-29
2.426761875e-29
1.981860485e-29
2.201056908e-29
2.049456065e-29
1.376465648e-29
1.207514226e-29
6.650524748e-30
3.023137002e-30
1.153099172e-30
3.644809131e-30
4.51081246e-30
2.140753717e-30
-8.471604515e-31
-4.321273554e-31
-1.504733709e-31
7.544204969e-32
-3.969283842e-31
-1.093866957e-30
2.794306886e-31
9.852801721e-31
8.305810408e-32
-1.193430008e-31
-3.019215208e-31
-3.455597599e-31
-2.233359822e-31
4.352983952e-31
5.946434699e-31
4.388989643e-31
1.825077831e-31
8.113179911e-32
-7.47926792e-33
3.258429822e-32
8.941995401e-33
4.911861189e-33
-3.051594696e-32
-7.955412466e-32
-7.111208987e-32
-5.319196096e-32
-4.719322931e-32
-4.682698055e-32
-3.389101759e-32
-3.49363491e-32
-2.380331571e-32
-3.633047265e-32
-2.200509499e-32
-1.241724718e-32
-5.716545744e-33
-1.290181701e-32
-8.695154935e-33
-6.3135945e-33
-4.448187757e-33
-4.952826087e-33
-6.722122099e-33
-6.355363345e-33
-4.736554435e-33
-5.650186222e-33
-3.33623461e-33
-2.144176134e-33
-1.501433528e-33
-1.367149118e-33
-4.282204776e-34
5.521085459e-34
2.552513391e-34
1.605501547e-34
1.400618643e-34
1.119904067e-34
2.030062416e-34
2.910519371e-34
3.62360322e-34
3.86406365e-34
2.217613909e-34
1.53361299e-34
9.929005934e-35
7.377333984e-35
4.743246423e-35
7.564690976e-35
1.249392124e-34
9.140055426e-35
6.197624268e-35
3.755849767e-35
2.563535295e-35
1.842701481e-35
1.088983451e-35
6.156779492e-36
5.309207955e-36
5.492237121e-36
5.704061914e-36
6.250492877e-36
7.635099722e-36
1.051351907e-35
1.089725025e-35
2.102508751e-35
2.21968728e-35
2.789448531e-35
2.355316015e-35
1.199868378e-35
9.557976633e-36
8.369396725e-36
5.364695431e-36
3.936470686e-36
3.413357031e-36
4.121136589e-36
4.412033658e-36
2.809337116e-36
2.357245373e-36
2.604512054e-36
1.425800113e-36
7.686674186e-37
3.239633419e-37
1.276979132e-37
-1.751801162e-38
-1.046214012e-38
4.51985372e-38
-9.705124222e-38
-1.227913434e-38
1.957502282e-39
4.612362043e-38
4.998299747e-38
1.208256569e-39
-1.961275643e-38
-2.577394852e-38
-7.444266986e-39
-3.527175143e-38
-2.901755104e-38
-5.434749131e-38
-8.345087942e-39
2.281577871e-40
1.841253936e-39
8.880585801e-39
3.719806218e-39
4.654877883e-40
3.982167141e-39
-2.134933263e-39
-7.415826844e-41
5.248452116e-39
4.846116537e-39
5.578610925e-39
9.310622197e-39
1.345863177e-38
9.111413728e-39
4.825461676e-39
5.044485714e-39
2.495154655e-39
1.753852095e-39
1.885495114e-39
9.91882796e-40
3.815205825e-40
9.890857201e-41
-1.03238309e-40
-1.867505252e-40
-3.603767337e-40
-7.185093786e-40
-7.080415404e-41
-3.071541442e-40
-5.722744897e-40
-8.295553649e-40
-8.326497847e-40
-1.117052065e-39
-1.333713232e-39
-8.925716696e-40
-5.473481835e-40
-3.506784238e-40
-2.483624632e-40
-2.161234136e-40
-2.68128548e-40
-2.838947082e-40
-2.467522681e-40
-2.068275768e-40
-1.95321766e-40
-1.009636622e-40
-5.899760228e-41
-2.991788715e-41
-4.040745315e-42
2.503040617e-41
1.744423978e-41
7.892887144e-42
4.877449241e-42
6.189002887e-42
1.334082148e-41
2.630245275e-41
2.522493712e-41
1.931947989e-41
1.07078881e-41
4.723416877e-42
1.539442387e-44
-1.074755858e-42
2.172846233e-42
6.657327736e-42
-9.101807708e-43
-5.590560157e-42
-8.175732139e-42
-1.876300567e-42
-7.683682456e-43
-2.271165273e-43
9.989701451e-44
2.442822942e-43
3.413422508e-43
3.10924032e-43
6.607220344e-44
-1.173526169e-44
1.68297021e-43
2.483680002e-43
1.28058792e-43
-2.817992862e-43
-8.669448913e-43
-5.78232329e-43
-5.52579474e-43
-3.526767153e-43
-1.645017458e-43
-3.246416622e-44
1.088354768e-43
6.477829562e-44
-6.623940096e-45
-7.924187296e-44
-5.033212134e-44
-2.883736246e-44
-9.150591472e-45
2.97827951e-44
7.169533716e-44
4.99260746e-44
3.988117306e-44
1.525910428e-44
2.407127038e-44
4.6441906e-44
3.299189855e-44
7.90426903e-45
3.381776468e-44
2.715978152e-44
1.753514877e-44
1.609969312e-44
6.225324584e-45
7.869359181e-45
8.831935071e-45
1.052875748e-44
8.960289494e-45
3.705239352e-45
5.493210761e-45
3.076649722e-46
1.802263246e-45
5.394447791e-48
-2.107960058e-45
-2.81665437e-45
-2.528630941e-45
4.657187051e-46
4.667065199e-46
-3.362693473e-46
-8.603598474e-46
-1.776684271e-45
-1.126828496e-45
-1.222708841e-45
-1.154374075e-45
-9.855070084e-46
-6.634097028e-46
-4.568247266e-46
-2.512825726e-46
-6.898013539e-47
7.72538401e-47
1.854441586e-47
-5.188790605e-47
-1.132819636e-46
-9.719461244e-47
-6.848097252e-47
-3.248173596e-47
-2.603625939e-47
-3.461231208e-48
-1.735784299e-47
-1.993999479e-47
1.448745097e-48
2.851215866e-47
1.209724328e-47
1.575607373e-47
6.219494035e-47
5.071039675e-47
5.365694769e-47
4.881344468e-47
6.31623495e-47
4.284344477e-47
2.507231943e-47
2.735437271e-47
2.214632409e-47
2.250209698e-47
1.374941928e-47
9.01610894e-48
6.521441488e-48
1.063652031e-47
1.16559185e-47
7.925287139e-48
5.704655047e-48
4.13495646e-48
2.646106371e-48
-1.176200615e-48
-2.112642139e-48
7.619246391e-49
2.237294688e-48
2.501637809e-48
2.295970812e-48
1.345368352e-48
6.809470296e-49
7.240250021e-49
-2.016785953e-49
-8.220290253e-49
-3.473957087e-49
1.447848591e-50
4.431753962e-49
3.328808003e-49
3.004745927e-49
3.139304313e-49
1.693027436e-49
2.557504026e-49
1.394232252e-49
6.273968567e-50
-1.806064732e-50
-8.400530522e-50
-1.663585074e-50
6.768379951e-51
2.622039986e-50
5.906110609e-50
1.080239258e-49
7.658936164e-50
6.133766516e-50
6.200361835e-50
2.372593791e-50
2.526417561e-50
1.344950255e-50
1.098764796e-51
-9.459031358e-51
-9.58967404e-51
-8.722872785e-51
-1.193754047e-50
-1.644582401e-50
-1.64390082e-50
-1.277075411e-50
-1.134030444e-50
-5.813426452e-51
-2.044740361e-51
8.450990647e-52
5.814396474e-51
4.1099894e-51
2.787056611e-51
4.950761541e-52
3.77298323e-52
2.620047329e-51
2.797722759e-51
3.739535856e-51
3.619242617e-51
2.204619401e-51
1.342410623e-51
8.076568545e-52
4.640044309e-52
2.231927854e-52
2.117607332e-53
-1.964481637e-52
-5.109038022e-52
-4.483658286e-52
-1.003038603e-52
2.455987834e-52
1.52444184e-52
1.078810996e-52
6.686752735e-53
6.065729137e-53
9.385436525e-53
1.705321037e-54
-7.143796314e-53
-8.781231463e-53
-3.707166899e-53
-3.631338947e-54
4.101802412e-53
5.011335448e-53
2.844754838e-53
1.70002759e-53
1.04675978e-53
3.22512997e-54
-4.956539881e-54
-1.647466077e-53
-3.2143528e-53
-3.635590747e-53
-2.890488395e-53
-1.622553245e-53
-9.675994842e-54
-1.391688907e-53
-1.390990736e-53
-1.742522029e-53
-1.482746542e-53
-1.762314755e-53
-1.165742178e-53
4.687565152e-55
1.640027989e-55
-6.736536215e-56
4.333586093e-56
-3.499210763e-58
1.071667746e-57
1.674827281e-58
6.973156583e-61
5.167904617e-61
1.660527948e-60
2.937245568e-62
-6.473053694e-62
-1.191993005e-62
6.39689366e-65
-3.658862539e-64
-1.536797204e-64
5.345598796e-67
6.398115854e-65
-2.309623089e-65
1.560746583e-65
-1.105143675e-66
-6.033498276e-68
9.162302973e-67
-4.402156123e-67
-2.128790149e-67
3.101885286e-68
9.012093027e-68
-6.784063045e-69
-1.313073963e-67
-2.284090626e-68
-3.327113359e-68
1.378224686e-69
-2.803252778e-69
-1.027886793e-69
-8.06722081e-71
1.524102143e-68
-5.209429689e-70
-3.373378619e-70
-3.503165987e-70
-2.06561993e-70
-1.753262907e-70
-1.201823039e-71
8.948971036e-71
3.166944789e-71
4.461402448e-72
-1.342617645e-71
2.510572869e-72
-1.290951326e-70
1.696540805e-71
-2.790399253e-71
1.46164809e-71
5.872390663e-73
-3.159053314e-72
-1.571770931e-72
2.202807833e-72
1.923836235e-72
-1.731337193e-74
4.161374216e-74
9.444485861e-76
-5.619502122e-74
-4.564948152e-74
1.285971664e-73
-1.505205797e-74
-4.998934512e-76
-1.450988782e-75
2.816642457e-76
-7.712707773e-77
3.488861808e-76
-5.474170781e-76
2.512198568e-76
-3.506599353e-75
-5.016643723e-77
-3.947231744e-76
5.400143707e-78
3.131128963e-79
-1.451492035e-78
-1.586896682e-76
8.97829035e-79
-8.125002368e-78
2.171008078e-78
-2.219568841e-77
1.175582578e-79
5.660309257e-79
5.371444632e-78
7.0820198e-80
1.807029407e-78
2.276837547e-78
3.329779898e-80
-5.211267751e-79
1.143757061e-79
2.21236141e-81
5.628663964e-80
8.239696146e-82
-2.981488302e-81
2.069640464e-81
-1.47810891e-81
-1.796332495e-81
8.914156672e-82
-2.194372914e-82
-1.581440239e-83
5.446041267e-85
2.794154198e-87
-1.402692529e-83
-7.897806762e-86
9.230939874e-86
-8.353534664e-86
1.59415451e-85
-4.783497879e-85
1.719613419e-84
8.650794325e-84
1.228729869e-85
5.173257184e-84
-1.168560596e-84
1.725084271e-84
-1.064135504e-84
-1.648256543e-87
8.67958026e-85
-8.838795138e-86
-1.130718419e-84
3.883043337e-84
1.34128681e-86
-2.533002751e-84
1.440337373e-86
-4.086686246e-85
-2.21667375e-84
-7.220418374e-84
-1.074647498e-84
-7.967001235e-85
-7.258285505e-84
-6.35364147e-85
-4.235335432e-84
-2.147225916e-86
-1.362114076e-84
-7.291140612e-84
6.07549142e-84
-3.78882344e-84
-1.735541031e-84
1.159097918e-84
-2.407773864e-84
-1.786180774e-84
-4.39529165e-86
9.51428682e-89
2.547248895e-88
1.050518922e-86
-1.449524995e-83
-2.238604753e-85
-9.057086551e-84
5.063768454e-86
-3.436134378e-86
-2.223330748e-83
-6.11028915e-84
-2.914398014e-86
1.038965487e-83
3.540497822e-84
6.965568288e-84
7.133244307e-86
7.376668084e-87
-8.52382584e-85
-5.3895614e-87
1.119684351e-87
-6.979458886e-85
4.640110041e-86
7.742258418e-87
-1.44967484e-83
8.134603295e-84
9.469328773e-86
1.031989531e-83
-8.587861524e-84
-3.638526067e-84
-3.494854645e-84
2.25741608e-85
1.733036255e-83
-6.597655338e-84
1.002785122e-85
-4.33679517e-89
-1.93763889e-84
-2.63712629e-84
-8.116442499e-84
1.158319701e-86
-1.328610479e-88
-4.05755786e-85
9.904067224e-87
-2.051934373e-83
3.53230456e-84
-2.909036062e-84
1.041139864e-83
-1.181542071e-83
-2.385133672e-84
-6.778653819e-84
-3.825280127e-84
6.933887693e-84
-2.472629551e-84
3.821680063e-85
-3.891410724e-87
-7.693969745e-87
-2.142574736e-84
1.056051099e-85
3.471305699e-84
1.902292184e-86
-2.959676559e-84
1.726838076e-84
-1.806908361e-87
-1.39396503e-84
-5.25825387e-84
5.223554792e-84
-1.728065913e-84
4.855832208e-86
-1.502567124e-84
3.471661409e-84
2.351309919e-85
5.212431991e-84
-5.080088175e-84
-4.879892861e-84
-6.692105628e-86
-2.901303688e-84
-5.288090878e-84
1.748598081e-84
1.198221921e-85
-4.401070895e-86
-1.670020746e-87
-6.394281614e-85
3.343537913e-86
-1.401764547e-86
4.652774682e-86
-4.641004591e-89
-1.118519501e-84
-1.381763373e-84
-5.37312076e-84
-2.255750599e-84
-1.34094933e-84
-9.172070622e-85
-4.458568637e-84
-1.196264691e-85
-9.699065085e-85
-2.187413487e-84
-1.211937075e-83
-2.009076247e-84
-2.439239197e-84
-9.422253727e-84
5.236146787e-84
3.365402196e-86
6.918957941e-84
4.887577666e-84
-8.66714454e-85
-2.711577942e-84
-3.491089815e-84
6.975627595e-84
-1.745009181e-84
-7.24675536e-85
-9.040757935e-84
)
;

boundaryField
{
    inlet
    {
        type            calculated;
        value           uniform 0;
    }
    outlet
    {
        type            calculated;
        value           uniform -9.040757748e-84;
    }
    wall
    {
        type            empty;
    }
}


// ************************************************************************* //
