/*--------------------------------*- C++ -*----------------------------------*\
  =========                 |
  \\      /  F ield         | OpenFOAM: The Open Source CFD Toolbox
   \\    /   O peration     | Website:  https://openfoam.org
    \\  /    A nd           | Version:  7
     \\/     M anipulation  |
\*---------------------------------------------------------------------------*/
FoamFile
{
    version     2.0;
    format      ascii;
    class       volScalarField;
    location    "0.000558243009";
    object      ddt0(rho,C3H2);
}
// * * * * * * * * * * * * * * * * * * * * * * * * * * * * * * * * * * * * * //

dimensions      [1 -3 -1 0 0 0 0];

internalField   nonuniform List<scalar> 
1500
(
-3.634368625e-52
-3.957659554e-53
4.986119358e-53
4.516689663e-53
2.993918502e-53
1.814745206e-53
1.029104778e-53
5.116405807e-54
1.653192289e-54
-7.889940228e-55
-2.664004328e-54
-4.248491173e-54
-5.651987678e-54
-6.915363734e-54
-8.034852865e-54
-8.982161644e-54
-9.737414663e-54
-1.027491948e-53
-1.058948622e-53
-1.067456686e-53
-1.053328743e-53
-1.017770663e-53
-9.625618747e-54
-8.897516665e-54
-8.013682719e-54
-7.001384312e-54
-5.885509127e-54
-4.693810759e-54
-3.453932353e-54
-2.188696235e-54
-9.307670144e-55
3.040529612e-55
1.488500711e-54
2.607555639e-54
3.64293475e-54
4.573865936e-54
5.391173517e-54
6.083823577e-54
6.638936991e-54
7.052452145e-54
7.317219303e-54
7.430849698e-54
7.382836068e-54
7.182542699e-54
6.832672764e-54
6.337421164e-54
5.698568418e-54
4.939562225e-54
4.058405145e-54
3.081184234e-54
2.021544386e-54
8.973828151e-55
-2.717785357e-55
-1.468991611e-54
-2.66738731e-54
-3.849021725e-54
-4.997254977e-54
-6.08914069e-54
-7.110824047e-54
-8.047516405e-54
-8.887480496e-54
-9.615440227e-54
-1.022600758e-53
-1.071249311e-53
-1.10645372e-53
-1.129030326e-53
-1.138217634e-53
-1.135353255e-53
-1.119690462e-53
-1.092962704e-53
-1.054832487e-53
-1.007179362e-53
-9.506277824e-54
-8.862845681e-54
-8.152863667e-54
-7.389278234e-54
-6.576611888e-54
-5.736648076e-54
-4.869029051e-54
-3.988507667e-54
-3.104545839e-54
-2.2229315e-54
-1.352254364e-54
-4.956529066e-55
3.373814926e-55
1.147818977e-54
1.924459876e-54
2.670952241e-54
3.373310657e-54
4.037242236e-54
4.656522996e-54
5.226978918e-54
5.744452649e-54
6.208962265e-54
6.608487066e-54
6.953411858e-54
7.234923902e-54
7.444994787e-54
7.584865908e-54
7.652719173e-54
7.643796186e-54
7.562669142e-54
7.409046338e-54
7.176714179e-54
6.872159362e-54
6.494009025e-54
6.049138658e-54
5.542063642e-54
4.96628136e-54
4.341249163e-54
3.661431239e-54
2.936995714e-54
2.174772579e-54
1.379980612e-54
5.592931646e-55
-2.828169466e-55
-1.136488361e-54
-1.997196738e-54
-2.854976127e-54
-3.70675495e-54
-4.545753711e-54
-5.363868017e-54
-6.157190732e-54
-6.917169916e-54
-7.639112384e-54
-8.323252971e-54
-8.958406216e-54
-9.540484185e-54
-1.006651701e-53
-1.053489539e-53
-1.094429517e-53
-1.128866554e-53
-1.157021533e-53
-1.178978005e-53
-1.194136951e-53
-1.202459904e-53
-1.204622703e-53
-1.200552322e-53
-1.19047783e-53
-1.174956647e-53
-1.153764774e-53
-1.127578759e-53
-1.096469949e-53
-1.061074446e-53
-1.02219079e-53
-9.797375886e-54
-9.345524339e-54
-8.865352443e-54
-8.368724904e-54
-7.858295678e-54
-7.338185092e-54
-6.816399619e-54
-6.294373988e-54
-5.775418317e-54
-5.26697283e-54
-4.770253027e-54
-4.291413741e-54
-3.829028363e-54
-3.387171807e-54
-2.968138537e-54
-2.566022058e-54
-2.188328356e-54
-1.825505627e-54
-1.485614209e-54
-1.153463738e-54
-8.360464905e-55
-5.279206952e-55
-2.229296753e-55
7.811799045e-56
3.811317351e-55
6.884311436e-55
1.004325055e-54
1.328584344e-54
1.660507371e-54
2.002370349e-54
2.355120702e-54
2.712508612e-54
3.082288772e-54
3.452973118e-54
3.825692404e-54
4.198599121e-54
4.564797721e-54
4.925267267e-54
5.273343438e-54
5.609768585e-54
5.933005134e-54
6.241980856e-54
6.527908355e-54
6.795199526e-54
7.048865855e-54
7.278779422e-54
7.48766783e-54
7.674529178e-54
7.845886068e-54
7.991388857e-54
8.118248596e-54
8.218309568e-54
8.292991052e-54
8.339573597e-54
8.363813198e-54
8.352848186e-54
8.313563227e-54
8.241881154e-54
8.137070246e-54
7.993983811e-54
7.819745241e-54
7.607489441e-54
7.361242694e-54
7.083136573e-54
6.7716834e-54
6.434271026e-54
6.070175678e-54
5.685081322e-54
5.285778121e-54
4.875793877e-54
4.465029426e-54
4.054206098e-54
3.647828206e-54
3.249458268e-54
2.864038574e-54
2.495815753e-54
2.133640106e-54
1.773512929e-54
1.414720336e-54
1.04286346e-54
6.450278158e-55
2.168320622e-55
-2.492016166e-55
-7.614704782e-55
-1.324900133e-54
-1.922516085e-54
-2.542575426e-54
-3.157561023e-54
-3.73984887e-54
-4.246995682e-54
-4.634185973e-54
-4.867049729e-54
-4.904213572e-54
-4.722144036e-54
-4.316089758e-54
-3.702178623e-54
-2.92855042e-54
-2.071943087e-54
-1.247221483e-54
-6.201124021e-55
-3.960803277e-55
-8.42320375e-55
-2.278839341e-54
-5.004578304e-54
-9.086529335e-54
-1.162240053e-53
-1.186493464e-53
-1.227408841e-53
-1.273508369e-53
-1.32107604e-53
-1.369299751e-53
-1.418489781e-53
-1.468651591e-53
-1.520136367e-53
-1.573093866e-53
-1.627877397e-53
-1.684197377e-53
-1.742088838e-53
-1.802133321e-53
-1.863922114e-53
-1.927737108e-53
-1.993269917e-53
-2.061212375e-53
-2.131199384e-53
-2.203522802e-53
-2.278225743e-53
-2.355604142e-53
-2.435352716e-53
-2.517699636e-53
-2.603076745e-53
-2.691045516e-53
-2.782342901e-53
-2.876794524e-53
-2.974467807e-53
-3.075594488e-53
-3.180260659e-53
-3.288897477e-53
-3.401621387e-53
-3.518139678e-53
-3.63933511e-53
-3.764715941e-53
-3.895016533e-53
-4.030475687e-53
-4.170978288e-53
-4.317038728e-53
-4.468849067e-53
-4.626731985e-53
-4.790629485e-53
-4.961391101e-53
-5.139133627e-53
-5.324336886e-53
-5.516997348e-53
-5.717553017e-53
-5.92672235e-53
-6.144628861e-53
-6.372051294e-53
-6.609007462e-53
-6.856706529e-53
-7.115014253e-53
-7.384664728e-53
-7.66618955e-53
-7.960438019e-53
-8.26813565e-53
-8.589583863e-53
-8.925505532e-53
-9.277073976e-53
-9.644942222e-53
-1.00297577e-52
-1.043254032e-52
-1.085411357e-52
-1.129595246e-52
-1.175847092e-52
-1.224330469e-52
-1.275131028e-52
-1.328397944e-52
-1.384268984e-52
-1.442820474e-52
-1.504282979e-52
-1.56874962e-52
-1.636419383e-52
-1.707468857e-52
-1.782075334e-52
-1.860411768e-52
-1.942733777e-52
-2.029206533e-52
-2.120097772e-52
-2.215665533e-52
-2.316142777e-52
-2.421797406e-52
-2.532966814e-52
-2.649955275e-52
-2.773085723e-52
-2.902694133e-52
-3.039179812e-52
-3.182954156e-52
-3.334445096e-52
-3.494086482e-52
-3.66236781e-52
-3.839792985e-52
-4.026934815e-52
-4.224369625e-52
-4.432748909e-52
-4.652719305e-52
-4.885009248e-52
-5.130362689e-52
-5.389624869e-52
-5.663685143e-52
-5.953446688e-52
-6.259982438e-52
-6.584276319e-52
-6.927582699e-52
-7.291090363e-52
-7.676117167e-52
-8.084220555e-52
-8.516814816e-52
-8.975621863e-52
-9.462395704e-52
-9.979107538e-52
-1.052782761e-51
-1.111076012e-51
-1.173034934e-51
-1.238916579e-51
-1.309004129e-51
-1.383599601e-51
-1.463033191e-51
-1.547654703e-51
-1.637853534e-51
-1.734037366e-51
-1.836657146e-51
-1.946195778e-51
-2.063185442e-51
-2.188184418e-51
-2.321822241e-51
-2.464752929e-51
-2.617709018e-51
-2.781477307e-51
-2.956911783e-51
-3.144929066e-51
-3.346541009e-51
-3.562831944e-51
-3.79499297e-51
-4.044300202e-51
-4.312157284e-51
-4.600082433e-51
-4.909722255e-51
-5.242854706e-51
-5.601434363e-51
-5.987578149e-51
-6.403569638e-51
-6.851926097e-51
-7.335356489e-51
-7.856800317e-51
-8.419465911e-51
-9.026826865e-51
-9.682681285e-51
-1.039113576e-50
-1.115665803e-50
-1.198407756e-50
-1.287868309e-50
-1.384618708e-50
-1.489281116e-50
-1.602526629e-50
-1.725089328e-50
-1.857760778e-50
-2.001402403e-50
-2.156948465e-50
-2.325409655e-50
-2.507881184e-50
-2.705552306e-50
-2.919707066e-50
-3.151740521e-50
-3.403158932e-50
-3.675592505e-50
-3.970803229e-50
-4.290697555e-50
-4.637341013e-50
-5.01295699e-50
-5.419940422e-50
-5.860892943e-50
-6.338607361e-50
-6.8561097e-50
-7.416648733e-50
-8.023726268e-50
-8.681119459e-50
-9.392893857e-50
-1.016343342e-49
-1.099743266e-49
-1.1899952e-49
-1.287643094e-49
-1.393272569e-49
-1.507509708e-49
-1.631029349e-49
-1.764554828e-49
-1.908860787e-49
-2.064779606e-49
-2.233203932e-49
-2.41508574e-49
-2.611455245e-49
-2.8234028e-49
-3.052106603e-49
-3.298821342e-49
-3.564893907e-49
-3.851761602e-49
-4.160966011e-49
-4.494150213e-49
-4.853073612e-49
-5.23962557e-49
-5.655815085e-49
-6.103793288e-49
-6.585862677e-49
-7.104486183e-49
-7.662282813e-49
-8.262074752e-49
-8.90686499e-49
-9.599868181e-49
-1.034452004e-48
-1.114450389e-48
-1.200376291e-48
-1.292648621e-48
-1.391720537e-48
-1.49807495e-48
-1.612229393e-48
-1.734738032e-48
-1.866196511e-48
-2.007241191e-48
-2.158558086e-48
-2.320883352e-48
-2.495006384e-48
-2.681777185e-48
-2.8821072e-48
-3.096981285e-48
-3.327460187e-48
-3.57468403e-48
-3.839881979e-48
-4.124383338e-48
-4.429626477e-48
-4.757156758e-48
-5.108654949e-48
-5.485933269e-48
-5.890959489e-48
-6.325864955e-48
-6.792959204e-48
-7.294760664e-48
-7.833990169e-48
-8.413615008e-48
-9.036867221e-48
-9.707260008e-48
-1.042863125e-47
-1.120516015e-47
-1.204140936e-47
-1.294237686e-47
-1.391352017e-47
-1.496079251e-47
-1.609074913e-47
-1.731055953e-47
-1.862809977e-47
-2.005200498e-47
-2.159180015e-47
-2.325792814e-47
-2.506188331e-47
-2.701642704e-47
-2.913553654e-47
-3.143472706e-47
-3.393118596e-47
-3.664386434e-47
-3.95937724e-47
-4.280387116e-47
-4.629937523e-47
-5.010738876e-47
-5.426017537e-47
-5.87914097e-47
-6.373845884e-47
-6.915357512e-47
-7.509428487e-47
-8.162491533e-47
-8.881983246e-47
-9.676598402e-47
-1.055666767e-46
-1.153458345e-46
-1.262539445e-46
-1.384758636e-46
-1.522397493e-46
-1.678206233e-46
-1.855412967e-46
-2.058941855e-46
-2.295045882e-46
-2.571889825e-46
-2.900296981e-46
-3.295154617e-46
-3.777029708e-46
-4.37414029e-46
-5.125510858e-46
-6.085420219e-46
-7.329737352e-46
-8.964890979e-46
-1.114063101e-45
-1.406820974e-45
-1.804632549e-45
-2.349808921e-45
-3.102384997e-45
-4.147669831e-45
-5.607057016e-45
-7.65348943e-45
-1.05336351e-44
-1.459968157e-44
-2.035502451e-44
-2.85198594e-44
-4.012564471e-44
-5.665106032e-44
-8.021797695e-44
-1.138744539e-43
-1.620034155e-43
-2.309141979e-43
-3.296990012e-43
-4.714759285e-43
-6.751931661e-43
-9.682563314e-43
-1.390351464e-42
-1.999031365e-42
-2.877871453e-42
-4.148420911e-42
-5.987734854e-42
-8.65413465e-42
-1.252514515e-41
-1.815351546e-41
-2.63499827e-41
-3.830607455e-41
-5.577641571e-41
-8.13502105e-41
-1.188566631e-40
-1.73971287e-40
-2.551262252e-40
-3.748791242e-40
-5.519777967e-40
-8.14485343e-40
-1.204518016e-39
-1.785460733e-39
-2.652971048e-39
-3.951847872e-39
-5.901926795e-39
-8.838021098e-39
-1.327171744e-38
-1.998734917e-38
-3.019161435e-38
-4.5747881e-38
-6.954438492e-38
-1.060759875e-37
-1.623668685e-37
-2.494418064e-37
-3.846838229e-37
-5.956318871e-37
-9.261331388e-37
-1.446362163e-36
-2.269236026e-36
-3.577459446e-36
-5.668360258e-36
-9.028632716e-36
-1.445971004e-35
-2.328921819e-35
-3.772971964e-35
-6.149065965e-35
-1.0082766e-34
-1.663508478e-34
-2.761566518e-34
-4.61274921e-34
-7.751844371e-34
-1.310499014e-33
-2.228336184e-33
-3.810180128e-33
-6.549741352e-33
-1.131613129e-32
-1.964447456e-32
-3.425464675e-32
-5.997933073e-32
-1.054275386e-31
-1.859722544e-31
-3.291245355e-31
-5.842163131e-31
-1.039871361e-30
-1.855563637e-30
-3.318669659e-30
-5.947526126e-30
-1.067683401e-29
-1.91863109e-29
-3.445749341e-29
-6.158604219e-29
-1.083085258e-28
-1.817214174e-28
-2.653662605e-28
-2.237903249e-28
4.336403417e-28
2.022348285e-27
-8.442072727e-27
-1.823122177e-25
-1.740471726e-24
-1.345566168e-23
-9.991064062e-23
-2.30710231e-23
-4.145011766e-23
-2.389725423e-23
-1.827002056e-22
7.114101752e-25
-7.880217356e-23
5.126533082e-22
4.261031965e-22
6.806021687e-23
-2.532437376e-23
-8.135119114e-23
-1.622122319e-22
-3.103954692e-22
-5.964081417e-22
-1.198113663e-21
-2.757224823e-21
-8.098982743e-21
-2.933015833e-20
-1.068217845e-19
-3.235876887e-19
-1.465985059e-18
-2.056302142e-18
-3.671022971e-19
-6.397002e-20
-1.078622131e-20
-1.848853573e-21
-5.681238678e-22
2.642386008e-22
8.39075566e-21
6.215661191e-20
3.475882048e-19
1.670593768e-18
7.167471147e-18
2.768378258e-17
9.518032734e-17
2.792990456e-16
6.068478072e-16
2.319861606e-16
-7.380792047e-15
-5.71622732e-14
-3.069546337e-13
-1.396730195e-12
-5.716197676e-12
-2.15988977e-11
-7.641648214e-11
-2.553276327e-10
-8.103310672e-10
-2.452933179e-09
-7.104760027e-09
-1.974057659e-08
-5.272656052e-08
-1.356192052e-07
-3.364100981e-07
-8.057155193e-07
-1.86481381e-06
-4.171081521e-06
-9.027367694e-06
-1.883405025e-05
-3.809886876e-05
-7.432336471e-05
-0.0001497568008
-0.0002709499433
-0.0004765861973
-0.0008175793786
-0.001365220347
-0.002229276534
-0.003576740248
-0.005669053259
-0.008907725288
-0.01389482573
-0.02148436076
-0.03235412266
-0.04987055561
-0.07025157996
-0.09586466711
-0.1260116534
-0.1666357864
-0.2002253434
-0.2286715756
-0.2435639121
-0.2684091229
-0.2176277849
-0.1145286195
0.04892444084
0.2738716762
0.5519656856
0.8855883308
1.222666001
1.618405147
2.014080641
2.390335699
2.677247731
2.837304613
2.84489442
2.703382134
2.453323715
2.164337086
1.830231161
1.482594589
1.159458596
0.8744655635
0.6194645512
0.3990272612
0.2153871314
0.05286731126
-0.0257799541
-0.07885199737
-0.1295819868
-0.1559314697
-0.1661218715
-0.1660652183
-0.1597542149
-0.1498250938
-0.1376075854
-0.1248961371
-0.1120583353
-0.09959534855
-0.08782333865
-0.07692756142
-0.06700059885
-0.05806999075
-0.05011867983
-0.04310025551
-0.03695038753
-0.03159475598
-0.02695532606
-0.02295441574
-0.01951743145
-0.01657458775
-0.01406187209
-0.01192146772
-0.01010179549
-0.008557303469
-0.007248097543
-0.006139481703
-0.005201456968
-0.004408214142
-0.003737641576
-0.00317086254
-0.002691810141
-0.002286843431
-0.001944405356
-0.001654721306
-0.001409535779
-0.001201884035
-0.001025895277
-0.0008766238962
-0.0007499053774
-0.0006422337207
-0.0005506574745
-0.0004726917806
-0.0004062441209
-0.0003495517418
-0.0003011289915
-0.0002597230514
-0.0002242767551
-0.0001938973802
-0.0001678304637
-0.0001454378399
-0.0001261792195
-0.0001095967387
-9.53019967e-05
-8.296517794e-05
-7.230591891e-05
-6.308563651e-05
-5.510107969e-05
-4.817890583e-05
-4.217111523e-05
-3.695120512e-05
-3.241092653e-05
-2.845754737e-05
-2.501154018e-05
-2.200462685e-05
-1.93781234e-05
-1.708153733e-05
-1.507137773e-05
-1.331014472e-05
-1.176547038e-05
-1.040938748e-05
-9.217706442e-06
-8.169483953e-06
-7.246569114e-06
-6.433215554e-06
-5.715749461e-06
-5.082285231e-06
-4.52248162e-06
-4.027332438e-06
-3.588986704e-06
-3.20059396e-06
-2.856171115e-06
-2.55048769e-06
-2.278966851e-06
-2.037599967e-06
-1.822872782e-06
-1.631701574e-06
-1.461377887e-06
-1.309520655e-06
-1.174034695e-06
-1.053074682e-06
-9.45013823e-07
-8.484168171e-07
-7.620159585e-07
-6.846907017e-07
-6.154496528e-07
-5.53414932e-07
-4.978084931e-07
-4.479401856e-07
-4.0319731e-07
-3.630354801e-07
-3.269706168e-07
-2.945719288e-07
-2.65455754e-07
-2.392801486e-07
-2.157401312e-07
-1.945634971e-07
-1.755071323e-07
-1.583537634e-07
-1.429090899e-07
-1.289992516e-07
-1.164685892e-07
-1.05177663e-07
-9.500149847e-08
-8.582802996e-08
-7.755672094e-08
-7.009733808e-08
-6.336886178e-08
-5.729851695e-08
-5.182091018e-08
-4.687726076e-08
-4.241471516e-08
-3.838573505e-08
-3.474755089e-08
-3.146167357e-08
-2.849345765e-08
-2.581171051e-08
-2.338834239e-08
-2.119805287e-08
-1.921804975e-08
-1.742779694e-08
-1.580878829e-08
-1.434434445e-08
-1.301943047e-08
-1.182049196e-08
-1.073530772e-08
-9.752857373e-09
-8.863202182e-09
-8.057377942e-09
-7.32729852e-09
-6.66566907e-09
-6.065907898e-09
-5.522076097e-09
-5.028814192e-09
-4.581285063e-09
-4.175122533e-09
-3.806385051e-09
-3.471513958e-09
-3.167295876e-09
-2.890828818e-09
-2.63949165e-09
-2.410916551e-09
-2.202964209e-09
-2.01370145e-09
-1.841381081e-09
-1.684423713e-09
-1.541401375e-09
-1.411022749e-09
-1.292119847e-09
-1.18363601e-09
-1.084615082e-09
-9.941916439e-10
-9.115822202e-10
-8.360773366e-10
-7.670343651e-10
-7.038710666e-10
-6.460597699e-10
-5.931221198e-10
-5.446243387e-10
-5.001729518e-10
-4.594109298e-10
-4.220142111e-10
-3.876885564e-10
-3.561667166e-10
-3.272058713e-10
-3.005853171e-10
-2.761043822e-10
-2.535805382e-10
-2.328476991e-10
-2.137546804e-10
-1.961638094e-10
-1.799496667e-10
-1.649979492e-10
-1.512044426e-10
-1.384740896e-10
-1.267201493e-10
-1.158634349e-10
-1.058316234e-10
-9.655863201e-11
-8.798405085e-11
-8.00526315e-11
-7.271382146e-11
-6.592134306e-11
-5.963281167e-11
-5.380938867e-11
-4.84154667e-11
-4.341838475e-11
-3.878816864e-11
-3.449729514e-11
-3.052047866e-11
-2.683447625e-11
-2.341791125e-11
-2.025111221e-11
-1.73159666e-11
-1.459578805e-11
-1.207519478e-11
-9.739999679e-12
-7.57710908e-12
-5.574432129e-12
-3.720796662e-12
-2.005873086e-12
-4.201054304e-13
1.045352528e-12
2.398694906e-12
3.647516413e-12
4.798860707e-12
5.859264315e-12
6.834797302e-12
7.73109955e-12
8.553414842e-12
9.306621666e-12
9.995261382e-12
1.062356409e-11
1.119547219e-11
1.171466258e-11
1.218456604e-11
1.260838576e-11
1.29891142e-11
1.33295484e-11
1.363230415e-11
1.3899829e-11
1.413441441e-11
1.433820652e-11
1.451321666e-11
1.466133027e-11
1.478431592e-11
1.488383316e-11
1.496143968e-11
1.501859842e-11
1.505668366e-11
1.507698688e-11
1.508072205e-11
1.506903082e-11
1.504298691e-11
1.500360057e-11
1.495182241e-11
1.488854722e-11
1.481461736e-11
1.473082587e-11
1.463791961e-11
1.453660189e-11
1.442753513e-11
1.431134322e-11
1.418861385e-11
1.40599005e-11
1.392572455e-11
1.378657694e-11
1.364292007e-11
1.349518931e-11
1.334379456e-11
1.318912161e-11
1.303153362e-11
1.287137215e-11
1.270895854e-11
1.254459494e-11
1.237856532e-11
1.22111365e-11
1.20425591e-11
1.187306834e-11
1.170288491e-11
1.153221576e-11
1.13612548e-11
1.119018361e-11
1.101917211e-11
1.084837914e-11
1.067795315e-11
1.050803257e-11
1.033874652e-11
1.017021522e-11
1.000255048e-11
9.835856129e-12
9.670228467e-12
9.505756644e-12
9.342523072e-12
9.180603752e-12
9.020068631e-12
8.860981921e-12
8.703402477e-12
8.54738393e-12
8.392975161e-12
8.240220412e-12
8.089159629e-12
7.939828663e-12
7.792259506e-12
7.646480498e-12
7.502516554e-12
7.360389334e-12
7.22011745e-12
7.081716622e-12
6.945199864e-12
6.81057764e-12
6.677857994e-12
6.547046722e-12
6.418147498e-12
6.291162e-12
6.16609003e-12
6.042929662e-12
5.921677296e-12
5.802327826e-12
5.684874707e-12
5.569308479e-12
5.455623241e-12
5.343807067e-12
5.233848615e-12
5.125735322e-12
5.019453976e-12
4.914990149e-12
4.812328957e-12
4.711454724e-12
4.612351111e-12
4.515001154e-12
4.419387321e-12
4.325491556e-12
4.233295344e-12
4.14277975e-12
4.053925465e-12
3.966712843e-12
3.881121948e-12
3.797132575e-12
3.714724303e-12
3.633876512e-12
3.554568428e-12
3.476779136e-12
3.40048762e-12
3.325672778e-12
3.25231346e-12
3.180388472e-12
3.109876618e-12
3.040756697e-12
2.973007546e-12
2.90660804e-12
2.84153711e-12
2.77777377e-12
2.715297118e-12
2.654086356e-12
2.594120804e-12
2.535379904e-12
2.477843242e-12
2.421490545e-12
2.366301703e-12
2.312256766e-12
2.259335963e-12
2.207519699e-12
2.156788567e-12
2.107123355e-12
2.058505049e-12
2.010914836e-12
1.964334117e-12
1.918744499e-12
1.874127809e-12
1.830466092e-12
1.787741614e-12
1.745936866e-12
1.705034567e-12
1.665017661e-12
1.625869322e-12
1.58757296e-12
1.550112209e-12
1.513470943e-12
1.477633261e-12
1.4425835e-12
1.408306228e-12
1.374786247e-12
1.34200859e-12
1.30995852e-12
1.278621533e-12
1.247983355e-12
1.218029937e-12
1.18874746e-12
1.160122333e-12
1.132141184e-12
1.10479087e-12
1.078058464e-12
1.051931263e-12
1.026396777e-12
1.001442734e-12
9.770570784e-13
9.532279609e-13
9.299437437e-13
9.071929981e-13
8.849644978e-13
8.632472199e-13
8.420303416e-13
8.213032394e-13
8.010554835e-13
7.812768379e-13
7.619572578e-13
7.430868856e-13
7.246560497e-13
7.066552625e-13
6.890752157e-13
6.7190678e-13
6.551410018e-13
6.387690998e-13
6.227824647e-13
6.071726534e-13
5.919313899e-13
5.770505605e-13
5.625222117e-13
5.483385491e-13
5.344919326e-13
5.209748763e-13
5.077800438e-13
4.949002483e-13
4.823284473e-13
4.700577425e-13
4.580813765e-13
4.463927307e-13
4.349853225e-13
4.238528033e-13
4.129889568e-13
4.023876953e-13
3.920430589e-13
3.819492128e-13
3.721004452e-13
3.624911639e-13
3.531158968e-13
3.439692873e-13
3.350460937e-13
3.263411862e-13
3.178495464e-13
3.095662635e-13
3.014865332e-13
2.936056565e-13
2.859190366e-13
2.784221782e-13
2.711106843e-13
2.639802562e-13
2.570266904e-13
2.502458774e-13
2.436338001e-13
2.371865324e-13
2.309002371e-13
2.247711646e-13
2.187956515e-13
2.129701192e-13
2.072910723e-13
2.017550974e-13
1.963588614e-13
1.910991108e-13
1.859726697e-13
1.809764393e-13
1.761073965e-13
1.713625921e-13
1.667391511e-13
1.622342697e-13
1.578452163e-13
1.535693288e-13
1.494040151e-13
1.453467504e-13
1.413950779e-13
1.375466071e-13
1.337990127e-13
1.30150034e-13
1.265974742e-13
1.231391986e-13
1.197731346e-13
1.164972696e-13
1.133096509e-13
1.102083837e-13
1.071916304e-13
1.042576085e-13
1.014046143e-13
9.863092257e-14
9.593493319e-14
9.331507061e-14
9.076980779e-14
8.829766507e-14
8.589721437e-14
8.356707252e-14
8.130591398e-14
7.911246431e-14
7.698551127e-14
7.492390883e-14
7.292658003e-14
7.099250918e-14
6.912071165e-14
6.731017284e-14
6.555969423e-14
6.386766767e-14
6.223153063e-14
6.064727088e-14
5.910729536e-14
5.760138725e-14
5.610653752e-14
5.459651912e-14
5.301876095e-14
5.129750986e-14
4.932397171e-14
4.695637785e-14
2.26821201e-14
2.652564012e-14
1.780584116e-14
1.179086158e-14
7.76176874e-15
5.064830757e-15
3.270690873e-15
2.087042928e-15
1.313762682e-15
8.141450748e-16
4.953272664e-16
2.947132644e-16
1.704902764e-16
9.500759382e-17
5.017902399e-17
2.431482911e-17
9.95826005e-18
2.422310545e-18
-1.189797248e-18
-2.633211746e-18
-2.945969565e-18
-2.723368397e-18
-2.292888021e-18
-1.823981562e-18
-1.395785566e-18
-1.038007939e-18
-7.549912122e-19
-5.394161545e-19
-3.797579881e-19
-2.640784097e-19
-1.817375917e-19
-1.239826949e-19
-8.397004285e-20
-5.653721419e-20
-3.789395513e-20
-2.531645408e-20
-1.68812691e-20
-1.124990237e-20
-7.502396783e-21
-5.013104547e-21
-3.360319959e-21
-2.261914678e-21
-1.530269108e-21
-1.04119604e-21
-7.127470874e-22
-4.909350818e-22
-3.402000965e-22
-2.370827089e-22
-1.660700941e-22
-1.168447125e-22
-8.251464333e-23
-5.84431902e-23
-4.148528024e-23
-2.949404458e-23
-2.098570608e-23
-1.493447772e-23
-1.062736761e-23
-7.560975511e-24
-5.373906084e-24
-3.816087082e-24
-2.705115876e-24
-1.916045359e-24
-1.354495429e-24
-9.564518064e-25
-6.741539418e-25
-4.745583503e-25
-3.335547525e-25
-2.342156566e-25
-1.643818144e-25
-1.153001261e-25
-8.10465627e-26
-5.68858343e-26
-4.007249805e-26
-2.824276737e-26
-1.93010996e-26
-1.428091906e-26
-1.071947437e-26
-7.327234104e-27
-5.909797298e-27
-4.383421877e-27
-3.513667183e-27
-2.725835672e-27
-2.175478549e-27
-1.392517383e-27
-1.302972494e-27
-1.208572522e-27
-1.059995814e-27
-8.643043908e-28
-8.396350042e-28
-6.499423039e-28
-5.011210587e-28
-4.141601231e-28
-3.449942947e-28
-2.98667765e-28
-2.616477252e-28
-2.217582115e-28
-1.685097749e-28
-1.217700331e-28
-1.011341955e-28
-7.633764446e-29
-5.926438954e-29
-3.23281552e-29
-7.577990293e-30
-5.944549932e-31
1.081216465e-29
1.642163935e-29
2.363399706e-29
3.571069397e-29
3.22249918e-29
1.222153484e-29
2.164145847e-29
2.844124094e-29
2.606192223e-29
1.671824793e-29
2.133210586e-29
1.705129224e-29
1.542977189e-29
1.782387859e-29
1.711896905e-29
7.500224717e-30
6.097582857e-30
-2.073612251e-30
7.315629461e-30
-4.978847356e-30
-3.45113269e-30
-1.10057145e-29
6.123212248e-31
-7.880522709e-30
2.627150969e-30
-6.67270372e-31
-3.393249749e-30
3.925975748e-30
-7.165941614e-30
-4.930572782e-30
1.677544e-29
1.563432969e-29
1.291477754e-29
1.319807909e-29
1.810366284e-29
-5.011621459e-30
-2.338782782e-30
-1.366829576e-29
1.878610324e-29
9.479468073e-31
7.348448292e-30
1.117529326e-29
8.372451986e-30
3.882879427e-30
-2.264124956e-30
3.000015231e-32
9.797286075e-31
-2.820459621e-31
1.228844361e-29
1.91061576e-29
1.497315334e-29
1.926076351e-29
3.64538612e-30
3.319894458e-29
3.898240061e-30
7.561565484e-30
1.98518798e-29
-9.504485273e-30
-1.472107915e-31
-1.041173165e-29
7.608591638e-30
-6.757649819e-31
-2.014615802e-29
-1.44827681e-29
1.402992834e-30
7.256462997e-30
-9.100307105e-32
-5.317477847e-31
-6.447538516e-30
-4.748375318e-30
-1.033384451e-29
2.242450892e-30
-4.153242637e-30
3.243214145e-30
-1.115356238e-29
-9.22156722e-30
-8.404349222e-30
3.06811435e-31
-5.133320563e-30
-9.581518138e-30
-9.449862444e-30
-1.078274735e-29
-1.307653263e-29
1.532571316e-31
-2.879780579e-30
-1.122839497e-29
-1.266818615e-29
-5.99019587e-30
-1.559657087e-29
-9.541290083e-30
-8.578019247e-30
-1.054776683e-29
-2.735291119e-32
-5.966008512e-30
-2.472431535e-30
-6.824627887e-30
-1.298830743e-29
-9.042162487e-30
-2.351783141e-30
-2.21561781e-30
1.650259067e-30
-1.473092933e-30
-2.912506086e-30
-1.502213184e-30
-4.063024492e-30
9.251209974e-31
-8.271817472e-30
2.443764172e-30
-3.885682877e-30
-2.844911345e-30
3.220076897e-30
3.625679836e-30
-3.972482445e-32
7.622925971e-30
4.393525889e-30
2.465776591e-30
3.872187507e-30
1.044948487e-29
3.000275506e-30
8.469821882e-30
6.473965143e-30
1.818799056e-30
-2.690000829e-30
5.006482115e-30
1.751223996e-30
1.7939904e-30
8.366938919e-30
1.150791474e-29
3.769659273e-30
-1.356257843e-29
3.296443459e-30
6.389993841e-30
9.389532311e-30
4.374799932e-30
3.541135294e-30
9.158728334e-31
6.238722863e-30
-3.121930817e-30
-1.527195047e-30
1.565919958e-30
-2.736710557e-30
-3.062519753e-30
2.449107543e-30
2.143415004e-29
-3.631808788e-32
-2.433143534e-30
)
;

boundaryField
{
    inlet
    {
        type            calculated;
        value           uniform 0;
    }
    outlet
    {
        type            calculated;
        value           uniform -2.012690243e-30;
    }
    wall
    {
        type            empty;
    }
}


// ************************************************************************* //
