/*--------------------------------*- C++ -*----------------------------------*\
  =========                 |
  \\      /  F ield         | OpenFOAM: The Open Source CFD Toolbox
   \\    /   O peration     | Website:  https://openfoam.org
    \\  /    A nd           | Version:  7
     \\/     M anipulation  |
\*---------------------------------------------------------------------------*/
FoamFile
{
    version     2.0;
    format      ascii;
    class       volScalarField;
    location    "0.000558243009";
    object      ddt0(rho,C2H5O);
}
// * * * * * * * * * * * * * * * * * * * * * * * * * * * * * * * * * * * * * //

dimensions      [1 -3 -1 0 0 0 0];

internalField   nonuniform List<scalar> 
1500
(
-1.198671202e-15
-3.666277743e-15
-5.581620812e-15
-5.721004048e-15
-4.442368804e-15
-2.787549238e-15
-1.474475617e-15
-6.807253424e-16
-2.867952806e-16
-1.211763121e-16
-6.224799569e-17
-4.60319146e-17
-4.459032237e-17
-4.74095005e-17
-5.090946227e-17
-5.397774783e-17
-5.628366115e-17
-5.773256428e-17
-5.830613225e-17
-5.801675682e-17
-5.689520459e-17
-5.498667999e-17
-5.23487414e-17
-4.904957444e-17
-4.516630923e-17
-4.078339947e-17
-3.599114271e-17
-3.088440674e-17
-2.556157309e-17
-2.012365069e-17
-1.467346625e-17
-9.314805591e-18
-4.151378903e-18
7.145006763e-19
5.183582702e-18
9.161700693e-18
1.256210388e-17
1.530796601e-17
1.733494153e-17
1.859357355e-17
1.90513598e-17
1.869429733e-17
1.75277616e-17
1.557662528e-17
1.288458459e-17
9.512721896e-18
5.537393545e-18
1.047579213e-18
-3.858138718e-18
-9.074784929e-18
-1.449420808e-17
-2.000815097e-17
-2.551104538e-17
-3.0902444e-17
-3.608904152e-17
-4.098627461e-17
-4.551951669e-17
-4.962490549e-17
-5.32498491e-17
-5.635325686e-17
-5.890553343e-17
-6.088836221e-17
-6.229429722e-17
-6.312616513e-17
-6.339628216e-17
-6.312548407e-17
-6.234198125e-17
-6.108005828e-17
-5.93786563e-17
-5.727989077e-17
-5.482757198e-17
-5.206580182e-17
-4.903772375e-17
-4.57844947e-17
-4.234453553e-17
-3.875309185e-17
-3.504211793e-17
-3.124046479e-17
-2.737433268e-17
-2.346792759e-17
-1.954424558e-17
-1.562590486e-17
-1.173594482e-17
-7.898517942e-18
-4.139417211e-18
-4.863948869e-19
3.030750103e-18
6.380322595e-18
9.529108332e-18
1.244295079e-17
1.50874911e-17
1.742902642e-17
1.943543709e-17
2.107713129e-17
2.232795947e-17
2.316604892e-17
2.357452096e-17
2.35420543e-17
2.30632717e-17
2.213893299e-17
2.077593203e-17
1.898710365e-17
1.679085991e-17
1.421068243e-17
1.127450641e-17
8.014036854e-18
4.464037909e-18
6.616347467e-19
-3.354339925e-18
-7.543928553e-18
-1.186654759e-17
-1.628140006e-17
-2.074780872e-17
-2.522548808e-17
-2.96747768e-17
-3.405685644e-17
-3.833397983e-17
-4.246972849e-17
-4.642931098e-17
-5.017990364e-17
-5.369102759e-17
-5.693494508e-17
-5.988705474e-17
-6.252625929e-17
-6.483527952e-17
-6.680089158e-17
-6.841407222e-17
-6.967004101e-17
-7.056820116e-17
-7.111198749e-17
-7.13086366e-17
-7.116890278e-17
-7.07067422e-17
-6.993898905e-17
-6.888504342e-17
-6.756658443e-17
-6.600731271e-17
-6.423272124e-17
-6.226987966e-17
-6.014721621e-17
-5.789427161e-17
-5.554140065e-17
-5.311939879e-17
-5.065903362e-17
-4.819047571e-17
-4.574262734e-17
-4.334236594e-17
-4.101372911e-17
-3.877708292e-17
-3.664832217e-17
-3.463816002e-17
-3.275156651e-17
-3.098741364e-17
-2.933837226e-17
-2.779110235e-17
-2.632674937e-17
-2.49217533e-17
-2.354894042e-17
-2.217886078e-17
-2.078130044e-17
-1.932689249e-17
-1.778872983e-17
-1.614388237e-17
-1.437471972e-17
-1.246995134e-17
-1.042530569e-17
-8.243802245e-18
-5.935587209e-18
-3.517341334e-18
-1.01129742e-18
1.556064122e-18
4.155545755e-18
6.75687236e-18
9.330317384e-18
1.184818578e-17
1.428603617e-17
1.662355172e-17
1.884499211e-17
2.093920334e-17
2.289919893e-17
2.472137167e-17
2.6404426e-17
2.794814998e-17
2.935216094e-17
3.061475811e-17
3.173200215e-17
3.269712042e-17
3.350028944e-17
3.412882242e-17
3.456773518e-17
3.480063658e-17
3.481086008e-17
3.458273656e-17
3.410290669e-17
3.336157772e-17
3.235363921e-17
3.107957359e-17
2.954611305e-17
2.776660464e-17
2.576104676e-17
2.355577639e-17
2.118276393e-17
1.867849043e-17
1.60823899e-17
1.343485341e-17
1.077485901e-17
8.137327599e-18
5.550407682e-18
3.032955577e-18
5.925592813e-19
-1.775504091e-18
-4.087992204e-18
-6.371786726e-18
-8.660162228e-18
-1.098727101e-17
-1.338115568e-17
-1.585590133e-17
-1.840385326e-17
-2.098909181e-17
-2.354349607e-17
-2.596674312e-17
-2.813139178e-17
-2.989380077e-17
-3.111100649e-17
-3.166289282e-17
-3.147807917e-17
-3.056102446e-17
-2.901701946e-17
-2.707115335e-17
-2.507710384e-17
-2.351184449e-17
-2.295313577e-17
-2.403803197e-17
-2.74024816e-17
-3.360439508e-17
-4.30350535e-17
-5.582621461e-17
-7.176248516e-17
-9.02101288e-17
-1.100742626e-16
-1.297961579e-16
-1.474013848e-16
-1.606080859e-16
-1.6700535e-16
-1.643112966e-16
-1.507311243e-16
-1.253911281e-16
-8.8816706e-17
-4.28250893e-17
1.091319249e-17
4.460148292e-17
4.88272872e-17
5.248073226e-17
5.60092968e-17
5.950903873e-17
6.299449268e-17
6.645619146e-17
6.98836869e-17
7.326735305e-17
7.660050137e-17
7.987819343e-17
8.309599857e-17
8.624979269e-17
8.933482475e-17
9.234612822e-17
9.527858128e-17
9.812654175e-17
1.00884193e-16
1.03545458e-16
1.061041235e-16
1.085536241e-16
1.108869271e-16
1.130969951e-16
1.151762795e-16
1.171171771e-16
1.18911138e-16
1.205498298e-16
1.220241383e-16
1.233248917e-16
1.244419612e-16
1.253652368e-16
1.260837141e-16
1.265860851e-16
1.268604559e-16
1.268940472e-16
1.266737806e-16
1.261857855e-16
1.254152772e-16
1.24346927e-16
1.229645463e-16
1.212509723e-16
1.191881551e-16
1.167570189e-16
1.139376448e-16
1.107087338e-16
1.070478915e-16
1.029316592e-16
9.833503815e-17
9.323160417e-17
8.759368307e-17
8.139176175e-17
7.459484346e-17
6.716994955e-17
5.908250078e-17
5.029574991e-17
4.077087068e-17
3.046678574e-17
1.934008724e-17
7.344959051e-18
-5.567063329e-18
-1.944740473e-17
-3.435010883e-17
-5.033261704e-17
-6.745535187e-17
-8.578241802e-17
-1.053812192e-16
-1.263232737e-16
-1.486839933e-16
-1.725428498e-16
-1.979840413e-16
-2.250961258e-16
-2.539726612e-16
-2.84712177e-16
-3.174188967e-16
-3.522021865e-16
-3.891777811e-16
-4.284670846e-16
-4.701982442e-16
-5.145059148e-16
-5.615319244e-16
-6.114252661e-16
-6.643425492e-16
-7.204485051e-16
-7.799155899e-16
-8.429254941e-16
-9.096682293e-16
-9.803434787e-16
-1.055160239e-15
-1.134337351e-15
-1.218104194e-15
-1.306700617e-15
-1.400377395e-15
-1.49939676e-15
-1.604032505e-15
-1.714570489e-15
-1.83130907e-15
-1.954559083e-15
-2.08464467e-15
-2.221903264e-15
-2.36668611e-15
-2.519358537e-15
-2.680300066e-15
-2.849905302e-15
-3.02858334e-15
-3.216758978e-15
-3.414872393e-15
-3.623379299e-15
-3.842751742e-15
-4.073477883e-15
-4.316062213e-15
-4.57102587e-15
-4.838906699e-15
-5.120259196e-15
-5.415654987e-15
-5.72568246e-15
-6.050947123e-15
-6.392071138e-15
-6.749694128e-15
-7.124471886e-15
-7.517077267e-15
-7.928199466e-15
-8.358544075e-15
-8.808832663e-15
-9.279802464e-15
-9.77220631e-15
-1.028681156e-14
-1.082440059e-14
-1.138576936e-14
-1.197172764e-14
-1.258309773e-14
-1.322071422e-14
-1.388542319e-14
-1.457808131e-14
-1.529955533e-14
-1.605072061e-14
-1.683246055e-14
-1.764566588e-14
-1.849123294e-14
-1.937006303e-14
-2.028306139e-14
-2.123113521e-14
-2.221519321e-14
-2.323614381e-14
-2.429489427e-14
-2.539234844e-14
-2.652940631e-14
-2.770696148e-14
-2.892590057e-14
-3.018710122e-14
-3.149143021e-14
-3.28397424e-14
-3.423287846e-14
-3.567166399e-14
-3.715690687e-14
-3.868939643e-14
-4.026990105e-14
-4.18991668e-14
-4.357791593e-14
-4.530684449e-14
-4.70866213e-14
-4.891788604e-14
-5.080124738e-14
-5.273728207e-14
-5.472653214e-14
-5.676950466e-14
-5.886666989e-14
-6.101845897e-14
-6.322526397e-14
-6.548743551e-14
-6.78052822e-14
-7.017906945e-14
-7.260901771e-14
-7.509530286e-14
-7.763805442e-14
-8.023735491e-14
-8.289323967e-14
-8.560569653e-14
-8.837466469e-14
-9.120003532e-14
-9.408165173e-14
-9.701930832e-14
-1.000127522e-13
-1.030616833e-13
-1.061657544e-13
-1.093245726e-13
-1.125377007e-13
-1.158046571e-13
-1.191249191e-13
-1.224979225e-13
-1.259230652e-13
-1.293997085e-13
-1.329271792e-13
-1.365047727e-13
-1.40131755e-13
-1.438073667e-13
-1.475308257e-13
-1.513013304e-13
-1.551180639e-13
-1.589801982e-13
-1.628868979e-13
-1.668373249e-13
-1.708306437e-13
-1.748660253e-13
-1.789426549e-13
-1.830597339e-13
-1.872164892e-13
-1.914121782e-13
-1.956460943e-13
-1.999175749e-13
-2.042260087e-13
-2.085708408e-13
-2.129515844e-13
-2.173678237e-13
-2.21819227e-13
-2.263055517e-13
-2.308266544e-13
-2.353825018e-13
-2.399731773e-13
-2.445988922e-13
-2.492599955e-13
-2.539569855e-13
-2.586905193e-13
-2.634614236e-13
-2.682707074e-13
-2.731195729e-13
-2.780094279e-13
-2.829418973e-13
-2.879188379e-13
-2.929423499e-13
-2.98014789e-13
-3.031387837e-13
-3.083172477e-13
-3.135533927e-13
-3.188507467e-13
-3.24213165e-13
-3.296448498e-13
-3.351503633e-13
-3.407346456e-13
-3.464030312e-13
-3.521612649e-13
-3.580155196e-13
-3.639724152e-13
-3.700390365e-13
-3.762229502e-13
-3.825322254e-13
-3.889754545e-13
-3.955617688e-13
-4.02300861e-13
-4.092030102e-13
-4.162790936e-13
-4.235406164e-13
-4.309997324e-13
-4.386692628e-13
-4.465627221e-13
-4.546943434e-13
-4.630791011e-13
-4.717327315e-13
-4.806717656e-13
-4.89913543e-13
-4.994762327e-13
-5.093788436e-13
-5.196410445e-13
-5.302855724e-13
-5.412652812e-13
-5.526774704e-13
-5.645974398e-13
-5.771374948e-13
-5.901406108e-13
-6.036312217e-13
-6.176374639e-13
-6.321886017e-13
-6.473153876e-13
-6.6305003e-13
-6.794262835e-13
-6.964795175e-13
-7.142467866e-13
-7.3276651e-13
-7.520979479e-13
-7.725708223e-13
-7.939618472e-13
-8.163117281e-13
-8.396691213e-13
-8.640101291e-13
-8.893982544e-13
-9.159367007e-13
-9.436794307e-13
-9.726817881e-13
-1.003001931e-12
-1.034700591e-12
-1.067841131e-12
-1.102489727e-12
-1.138715549e-12
-1.17659098e-12
-1.216191909e-12
-1.257598008e-12
-1.300893112e-12
-1.346165645e-12
-1.393509101e-12
-1.443022644e-12
-1.494811819e-12
-1.548989376e-12
-1.605676299e-12
-1.665002995e-12
-1.727110782e-12
-1.792153628e-12
-1.860300311e-12
-1.931736992e-12
-2.006670363e-12
-2.085331476e-12
-2.167980375e-12
-2.254911773e-12
-2.346461935e-12
-2.443017096e-12
-2.545023701e-12
-2.653000958e-12
-2.767556086e-12
-2.889403007e-12
-3.019385135e-12
-3.158503232e-12
-3.307949463e-12
-3.469148948e-12
-3.643810639e-12
-3.8339894e-12
-4.042161957e-12
-4.271319627e-12
-4.525081757e-12
-4.807834228e-12
-5.124898788e-12
-5.482739893e-12
-5.889217471e-12
-6.353895682e-12
-6.888420093e-12
-7.50697836e-12
-8.226862861e-12
-9.069157786e-12
-1.005957802e-11
-1.122949336e-11
-1.261717878e-11
-1.42693404e-11
-1.624297786e-11
-1.860765663e-11
-2.144828065e-11
-2.48684743e-11
-2.899470762e-11
-3.398132706e-11
-4.001668958e-11
-4.733064115e-11
-5.620363282e-11
-6.69778311e-11
-8.007065684e-11
-9.599128081e-11
-1.153607183e-10
-1.389363043e-10
-1.676414976e-10
-2.026021705e-10
-2.451907852e-10
-2.970801618e-10
-3.603089091e-10
-4.373610319e-10
-5.312627687e-10
-6.457003596e-10
-7.851632527e-10
-9.55118184e-10
-1.16222076e-09
-1.414572543e-09
-1.722033369e-09
-2.096600625e-09
-2.552869762e-09
-3.10859325e-09
-3.785358775e-09
-4.609411909e-09
-5.612653615e-09
-6.833849251e-09
-8.320093419e-09
-1.012858381e-08
-1.232876848e-08
-1.500494337e-08
-1.825939329e-08
-2.221618706e-08
-2.702576075e-08
-3.287044791e-08
-3.997114774e-08
-4.859535822e-08
-5.906684464e-08
-7.177726368e-08
-8.720012418e-08
-1.059075315e-07
-1.285902429e-07
-1.560816535e-07
-1.893864288e-07
-2.297146238e-07
-2.78522246e-07
-3.375593645e-07
-4.089270109e-07
-4.951442633e-07
-5.992270526e-07
-7.247803654e-07
-8.761055915e-07
-1.058324838e-06
-1.27752395e-06
-1.540915827e-06
-1.85702523e-06
-2.235895664e-06
-2.689317901e-06
-3.231078294e-06
-3.877222869e-06
-4.646330394e-06
-5.559785694e-06
-6.642026697e-06
-7.920768547e-06
-9.427141009e-06
-1.119572058e-05
-1.326439361e-05
-1.567397924e-05
-1.846757184e-05
-2.168948382e-05
-2.53838926e-05
-2.959326315e-05
-3.435682182e-05
-3.970925256e-05
-4.567910536e-05
-5.228449239e-05
-5.95200486e-05
-6.732442635e-05
-7.55148118e-05
-8.368074647e-05
-9.10533431e-05
-9.641469655e-05
-9.817954452e-05
-9.483325821e-05
-8.587957493e-05
-7.324972688e-05
-6.268980175e-05
-6.401336277e-05
-8.847029997e-05
-0.0001410866572
-0.0002055519704
-0.0002180806394
-2.40024632e-05
0.0006873100184
0.002447334704
0.005990874035
0.01205367874
0.02103377808
0.03278734718
0.04680201149
0.06269359593
0.08071759265
0.1019087759
0.1281212317
0.1607818396
0.2006082245
0.2451385118
0.3008801988
0.3625873094
0.4256384747
0.4854245959
0.5524414873
0.6576984545
0.8131742564
0.9466200687
0.9881932398
0.9662685145
0.927237304
0.920208374
0.9086770695
0.9041626023
0.8848941264
0.8502883976
0.7637669808
0.6444451699
0.5087595135
0.3970085942
0.2889019138
0.2019268265
0.1334040543
0.08000760123
0.0418045506
0.01339432132
-0.004805285988
-0.0181049701
-0.02584213798
-0.02953070977
-0.03016923786
-0.02877440081
-0.02618402984
-0.02304902593
-0.01968178477
-0.01621668698
-0.01312985752
-0.01046427243
-0.008223490984
-0.006401068692
-0.00496277006
-0.00384317587
-0.002976054857
-0.002296066109
-0.00173818107
-0.0013100764
-0.0009923232993
-0.0007478605253
-0.0005612994166
-0.0004199008747
-0.0003133088213
-0.0002332896432
-0.0001733371541
-0.0001286327657
-9.532480909e-05
-7.055207922e-05
-5.215632074e-05
-3.85153405e-05
-2.84133272e-05
-2.094118149e-05
-1.542050858e-05
-1.134597277e-05
-8.341765145e-06
-6.128794739e-06
-4.500101037e-06
-3.302407266e-06
-2.422332464e-06
-1.776103395e-06
-1.301890392e-06
-9.541067374e-07
-6.991746218e-07
-5.123847457e-07
-3.755700837e-07
-2.753848691e-07
-2.020328205e-07
-1.483284177e-07
-1.09004728e-07
-8.020355456e-08
-5.910024997e-08
-4.362788263e-08
-3.227462723e-08
-2.393506742e-08
-1.780115331e-08
-1.328229963e-08
-9.946879291e-09
-7.47941181e-09
-5.649255937e-09
-4.28772792e-09
-3.27138628e-09
-2.509826508e-09
-1.936772036e-09
-1.503572993e-09
-1.174462807e-09
-9.230975522e-10
-7.300309751e-10
-5.808718167e-10
-4.649385619e-10
-3.742767842e-10
-3.029408074e-10
-2.464680661e-10
-2.014939925e-10
-1.654694308e-10
-1.364529013e-10
-1.129575597e-10
-9.383816327e-11
-7.820734547e-11
-6.537339374e-11
-5.479383746e-11
-4.604068644e-11
-3.877427876e-11
-3.272350964e-11
-2.767080692e-11
-2.34406508e-11
-1.989075152e-11
-1.690522969e-11
-1.438931312e-11
-1.226518807e-11
-1.046873441e-11
-8.946941291e-12
-7.655849985e-12
-6.558907492e-12
-5.625642152e-12
-4.83059312e-12
-4.152441203e-12
-3.573300171e-12
-3.078136776e-12
-2.654294385e-12
-2.291100472e-12
-1.979542245e-12
-1.711997886e-12
-1.482013301e-12
-1.284116272e-12
-1.11366142e-12
-9.667006386e-13
-8.398746077e-13
-7.303218277e-13
-6.35602216e-13
-5.536328523e-13
-4.826338505e-13
-4.210827812e-13
-3.676760629e-13
-3.212964395e-13
-2.809854341e-13
-2.459199927e-13
-2.153926858e-13
-1.887948999e-13
-1.656025598e-13
-1.453639741e-13
-1.276894918e-13
-1.12242685e-13
-9.873282704e-14
-8.690846924e-14
-7.655195041e-14
-6.747469819e-14
-5.951320815e-14
-5.252559572e-14
-4.638864008e-14
-4.099524405e-14
-3.625225094e-14
-3.207856911e-14
-2.840355698e-14
-2.516563182e-14
-2.231106477e-14
-1.979294855e-14
-1.757030435e-14
-1.560730321e-14
-1.387260263e-14
-1.233876312e-14
-1.09817468e-14
-9.780482577e-15
-8.716490909e-15
-7.773550691e-15
-6.937417212e-15
-6.195573399e-15
-5.537014767e-15
-4.952058211e-15
-4.432182812e-15
-3.969882208e-15
-3.558543343e-15
-3.192334535e-15
-2.866113211e-15
-2.57534057e-15
-2.316005994e-15
-2.084569404e-15
-1.877902054e-15
-1.693236105e-15
-1.528123205e-15
-1.380395442e-15
-1.248133762e-15
-1.129637085e-15
-1.023398489e-15
-9.280823607e-16
-8.425029789e-16
-7.65608327e-16
-6.964636492e-16
-6.342396343e-16
-5.781988273e-16
-5.276848913e-16
-4.821144966e-16
-4.409687793e-16
-4.037856854e-16
-3.701532756e-16
-3.397044724e-16
-3.12112997e-16
-2.870860394e-16
-2.643639843e-16
-2.437142412e-16
-2.249289043e-16
-2.078224626e-16
-1.922290489e-16
-1.779998434e-16
-1.650015782e-16
-1.531159494e-16
-1.422359732e-16
-1.322655089e-16
-1.231191632e-16
-1.147194547e-16
-1.06997064e-16
-9.988961596e-17
-9.334096123e-17
-8.730096128e-17
-8.172378193e-17
-7.656846361e-17
-7.179839454e-17
-6.737986225e-17
-6.328305418e-17
-5.948035043e-17
-5.594722415e-17
-5.26611303e-17
-4.960184115e-17
-4.675088684e-17
-4.409142812e-17
-4.16084289e-17
-3.928827076e-17
-3.711821104e-17
-3.50867972e-17
-3.318357842e-17
-3.139883348e-17
-2.972417801e-17
-2.815133822e-17
-2.66730996e-17
-2.528274769e-17
-2.397415654e-17
-2.274172774e-17
-2.158018516e-17
-2.04848664e-17
-1.945121054e-17
-1.847521127e-17
-1.755319482e-17
-1.668169798e-17
-1.585752011e-17
-1.507755244e-17
-1.433915215e-17
-1.363961897e-17
-1.297686521e-17
-1.234867115e-17
-1.175283074e-17
-1.118750732e-17
-1.065101353e-17
-1.014161923e-17
-9.657894311e-18
-9.198318498e-18
-8.761553627e-18
-8.346374157e-18
-7.951629284e-18
-7.576131861e-18
-7.218846969e-18
-6.878742623e-18
-6.555021402e-18
-6.24671868e-18
-5.953101979e-18
-5.673467983e-18
-5.407087654e-18
-5.153290932e-18
-4.91138749e-18
-4.680785484e-18
-4.460944768e-18
-4.25127361e-18
-4.05144151e-18
-3.860935002e-18
-3.679151371e-18
-3.505710778e-18
-3.34025948e-18
-3.182521512e-18
-3.031873822e-18
-2.88802914e-18
-2.750813574e-18
-2.619803875e-18
-2.49476651e-18
-2.375345592e-18
-2.261353748e-18
-2.152551983e-18
-2.04879192e-18
-1.949724405e-18
-1.855135418e-18
-1.764837649e-18
-1.678652957e-18
-1.596287435e-18
-1.517589273e-18
-1.442458165e-18
-1.370713527e-18
-1.302243636e-18
-1.236857148e-18
-1.174406967e-18
-1.114767934e-18
-1.057839728e-18
-1.003499313e-18
-9.516392398e-19
-9.02145554e-19
-8.548676133e-19
-8.097795645e-19
-7.667073854e-19
-7.256133043e-19
-6.864545418e-19
-6.491081908e-19
-6.133904861e-19
-5.793030821e-19
-5.467596026e-19
-5.157362279e-19
-4.861349425e-19
-4.578858132e-19
-4.309931632e-19
-4.053081606e-19
-3.808413084e-19
-3.575381733e-19
-3.353153613e-19
-3.141440236e-19
-2.939400019e-19
-2.747003754e-19
-2.564181458e-19
-2.390108812e-19
-2.224127617e-19
-2.066418879e-19
-1.915627282e-19
-1.772176108e-19
-1.635863004e-19
-1.506616291e-19
-1.383569565e-19
-1.26652942e-19
-1.155974787e-19
-1.050266342e-19
-9.500140083e-20
-8.549767297e-20
-7.646169713e-20
-6.786187594e-20
-5.972145218e-20
-5.20167072e-20
-4.473447056e-20
-3.785448639e-20
-3.13685844e-20
-2.518578762e-20
-1.931863669e-20
-1.381046609e-20
-8.59275058e-21
-3.653445711e-21
9.895472059e-22
5.382487275e-21
9.495108975e-21
1.333703521e-20
1.699020939e-20
2.043196745e-20
2.363585438e-20
2.666961668e-20
2.948030926e-20
3.209724487e-20
3.454026404e-20
3.682901382e-20
3.895627874e-20
4.098477824e-20
4.282517656e-20
4.450983123e-20
4.605980542e-20
4.748241151e-20
4.880259747e-20
5.004716524e-20
5.116944401e-20
5.219870681e-20
5.310618868e-20
5.391778924e-20
5.462815502e-20
5.525033954e-20
5.578692623e-20
5.624401701e-20
5.663810693e-20
5.699125345e-20
5.728530337e-20
5.752800547e-20
5.773156324e-20
5.785996574e-20
5.793918082e-20
5.796742097e-20
5.794777405e-20
5.787714414e-20
5.778525147e-20
5.763498435e-20
5.750740878e-20
5.732531214e-20
5.708789348e-20
5.68140254e-20
5.650535089e-20
5.617630033e-20
5.58234185e-20
5.546971196e-20
5.507705717e-20
5.465286326e-20
5.421515013e-20
5.374171095e-20
5.325674233e-20
5.279453276e-20
5.230469413e-20
5.181404075e-20
5.129842133e-20
5.076853192e-20
5.024015976e-20
4.969744949e-20
4.914215249e-20
4.858027085e-20
4.801610975e-20
4.74498407e-20
4.686206791e-20
4.629954464e-20
4.5751961e-20
4.518342715e-20
4.461640433e-20
4.402945894e-20
4.34385432e-20
4.285318945e-20
4.227252267e-20
4.169667039e-20
4.112219225e-20
4.053915977e-20
3.995895134e-20
3.936645539e-20
3.878815142e-20
3.821104971e-20
3.764651823e-20
3.707301287e-20
3.651893382e-20
3.598907517e-20
3.543890405e-20
3.488337812e-20
3.432886608e-20
3.378730903e-20
3.325436648e-20
3.273725176e-20
3.220580137e-20
3.167172609e-20
3.114483158e-20
3.062146308e-20
3.011437548e-20
2.962709935e-20
2.915234046e-20
2.866693046e-20
2.818043562e-20
2.769824508e-20
2.722847253e-20
2.675404475e-20
2.627741064e-20
2.58022734e-20
2.53450414e-20
2.489189829e-20
2.445308216e-20
2.402071637e-20
2.35857096e-20
2.315200218e-20
2.272430283e-20
2.232513744e-20
2.193154019e-20
2.154781572e-20
2.11540682e-20
2.076496879e-20
2.037105499e-20
2.000246056e-20
1.963753607e-20
1.927946847e-20
1.891190485e-20
1.855248402e-20
1.820733062e-20
1.786008198e-20
1.750657579e-20
1.715296776e-20
1.68128567e-20
1.647388573e-20
1.615302067e-20
1.583743123e-20
1.552772257e-20
1.522732593e-20
1.493744323e-20
1.464633497e-20
1.437037538e-20
1.408940556e-20
1.380932361e-20
1.353161981e-20
1.325474032e-20
1.299300933e-20
1.272743882e-20
1.245969792e-20
1.2201905e-20
1.195205831e-20
1.169734075e-20
1.144802836e-20
1.12128974e-20
1.098609899e-20
1.075832266e-20
1.053841456e-20
1.032391091e-20
1.011438256e-20
9.902766597e-21
9.692194632e-21
9.48565686e-21
9.280353319e-21
9.079545294e-21
8.891244564e-21
8.71429876e-21
8.537476034e-21
8.366222493e-21
8.197415448e-21
8.018779052e-21
7.835660263e-21
7.656979717e-21
7.49648492e-21
7.325890475e-21
7.169359346e-21
7.011999285e-21
6.862831653e-21
6.71948206e-21
6.575911808e-21
6.431173138e-21
6.287612967e-21
6.151127203e-21
6.01764142e-21
5.885030261e-21
5.758795807e-21
5.642097348e-21
5.532131273e-21
5.423118506e-21
5.312741173e-21
5.197571014e-21
5.08881036e-21
4.980695996e-21
4.873539134e-21
4.775827364e-21
4.678536112e-21
4.567636639e-21
4.45675948e-21
4.331100959e-21
4.179793331e-21
2.550564023e-21
2.496898307e-21
1.782824527e-21
1.235806764e-21
8.666415898e-22
5.846920287e-22
4.020169102e-22
3.115573809e-22
2.081546627e-22
1.248520936e-22
1.113271151e-22
4.617746221e-23
1.196770717e-23
1.635806177e-23
2.009905349e-23
7.920874715e-24
-4.551765001e-24
6.937365593e-24
5.212787424e-24
1.130649579e-23
-1.75125138e-25
2.388412562e-24
-4.858011848e-24
1.082640071e-24
-1.492300831e-24
1.113892836e-25
4.08907896e-25
-6.225449083e-25
-4.10601898e-25
-3.624030154e-25
-7.178216635e-25
-8.718102691e-25
-7.94248811e-25
-2.220357554e-26
-4.833899855e-26
-7.90346574e-25
-1.729955137e-24
-1.187152796e-24
-9.832077385e-25
-1.187278801e-24
-1.629536053e-24
-1.410430491e-24
-1.291269922e-24
-1.147950994e-24
-1.998622242e-24
-2.229162937e-24
-1.524415474e-24
-1.572277988e-24
-1.78017587e-24
-8.495116926e-25
-2.054044657e-24
-1.684285664e-24
-2.074652598e-24
8.292841352e-25
3.991107922e-25
-2.110728484e-24
-2.067114997e-24
-6.358549865e-25
-1.33092445e-24
-1.382970016e-24
-1.129208356e-24
-1.430054237e-24
-7.1280369e-25
-1.209501353e-24
-1.168538584e-24
-1.028771126e-24
-8.289542884e-25
-8.825549782e-25
-8.474585446e-25
-7.664297893e-25
-7.499913005e-25
-7.398709549e-25
-6.402520458e-25
-6.101878543e-25
-8.310451532e-25
-6.81145965e-25
3.856206001e-27
-5.716221514e-25
-4.037445884e-25
-6.30415929e-25
-1.246973692e-25
-5.376173692e-25
-6.381581485e-25
-1.848079517e-25
-1.624163655e-25
-3.812421011e-25
-2.441127013e-25
-3.428827361e-25
-1.808143574e-25
-2.156822096e-25
-1.219669041e-25
-1.037300909e-25
-6.685750782e-26
-7.348229714e-26
-4.039952705e-26
-3.631892966e-26
-4.700354351e-26
-3.365222625e-26
-2.159785882e-26
1.494514793e-27
2.30108895e-27
1.596704446e-27
1.226162795e-26
9.651279166e-27
8.059211889e-27
3.939363484e-27
8.622158574e-27
1.4743719e-27
2.351782562e-26
5.58155777e-27
1.091406436e-26
1.173752563e-26
1.307888831e-27
1.010158081e-26
-1.966861585e-27
3.038708949e-27
2.095738884e-27
3.315403047e-27
3.812675867e-27
1.471585393e-27
-4.431830812e-27
3.351712226e-27
-3.85517909e-27
4.501011011e-27
7.402981313e-27
3.146241614e-27
-1.67520075e-27
6.208740399e-27
5.480008055e-27
3.598809011e-27
4.429291538e-27
-3.955043883e-27
1.968872143e-26
3.263412091e-27
4.455372708e-27
6.487188829e-27
-3.281755893e-27
4.708065497e-27
7.698465384e-27
1.766483164e-26
-7.170113595e-27
1.018884713e-26
1.153588854e-27
1.649402723e-26
6.041601878e-27
-1.54266077e-26
-9.31247539e-27
2.104541948e-26
7.52282427e-27
9.537751817e-27
3.603391257e-27
9.136613842e-27
-1.348291466e-26
-1.477194951e-26
-8.921053545e-28
2.393619192e-27
7.022190488e-27
2.130593576e-27
2.045434422e-26
1.13877334e-27
7.645771432e-27
2.133339201e-27
9.850919336e-27
1.461167544e-27
-1.058411127e-26
-4.939788119e-27
-5.074916234e-27
9.95091862e-27
4.31726471e-27
1.095779668e-26
-1.503971823e-26
-3.61063992e-27
2.834111478e-27
-2.90762886e-27
-5.657525257e-28
-2.202063665e-26
-7.80165919e-27
1.601927018e-27
-9.286490483e-29
-6.310495556e-28
1.083225228e-26
-1.17385837e-27
-5.97236388e-27
4.11914007e-28
2.293526294e-26
-8.358764989e-27
6.816359967e-27
-2.340949537e-27
-2.954105166e-27
-9.321771536e-27
1.085764994e-26
1.133902294e-26
-5.188270809e-27
8.563591315e-27
-1.233235857e-27
2.423370102e-27
-5.11400463e-27
-1.10646228e-27
-2.237043946e-27
-9.897223199e-27
-5.509592566e-27
-1.092928314e-26
-1.198297281e-27
-6.604481239e-27
-1.032778684e-26
-9.851879063e-27
-6.329685825e-27
6.84404944e-27
1.56759531e-27
-5.128319006e-27
4.617188436e-27
3.101461337e-27
-5.325047857e-27
1.272751369e-27
1.10130535e-27
1.164029925e-26
1.088001275e-27
1.526205523e-27
-2.473298478e-27
-4.68955115e-28
2.177971846e-27
-8.263884408e-29
1.230311725e-27
9.454123471e-28
9.864753211e-28
3.453607204e-27
3.735795812e-27
2.296613623e-27
-6.01956653e-27
2.606440325e-27
1.715657378e-27
-7.275263088e-28
1.494405997e-27
6.177626993e-27
7.17262343e-27
-9.104770868e-27
6.704847026e-27
-2.144022232e-27
1.056583932e-27
3.338146721e-27
-1.510604094e-26
-2.072275084e-27
-9.930892317e-27
1.356251008e-27
-8.323162002e-27
-4.259175128e-27
-2.667570131e-26
-1.668574608e-26
8.338635559e-27
-5.994124258e-27
)
;

boundaryField
{
    inlet
    {
        type            calculated;
        value           uniform 0;
    }
    outlet
    {
        type            calculated;
        value           uniform -5.905442376e-27;
    }
    wall
    {
        type            empty;
    }
}


// ************************************************************************* //
