/*--------------------------------*- C++ -*----------------------------------*\
  =========                 |
  \\      /  F ield         | OpenFOAM: The Open Source CFD Toolbox
   \\    /   O peration     | Website:  https://openfoam.org
    \\  /    A nd           | Version:  7
     \\/     M anipulation  |
\*---------------------------------------------------------------------------*/
FoamFile
{
    version     2.0;
    format      ascii;
    class       volScalarField;
    location    "0.000558243009";
    object      ddt0(rho,CH4);
}
// * * * * * * * * * * * * * * * * * * * * * * * * * * * * * * * * * * * * * //

dimensions      [1 -3 -1 0 0 0 0];

internalField   nonuniform List<scalar> 
1500
(
-1.110251214e-06
-3.51040649e-06
-5.499019128e-06
-5.821705533e-06
-4.678733967e-06
-3.039103109e-06
-1.659788853e-06
-7.838405287e-07
-3.282069195e-07
-1.271203955e-07
-5.131433942e-08
-2.820774341e-08
-2.432445092e-08
-2.641349713e-08
-2.975980749e-08
-3.283970479e-08
-3.518875877e-08
-3.667263634e-08
-3.726235243e-08
-3.696807777e-08
-3.582083409e-08
-3.386692095e-08
-3.116537771e-08
-2.7786116e-08
-2.380818189e-08
-1.931810678e-08
-1.440840774e-08
-9.176294929e-09
-3.722594138e-09
1.849162529e-09
7.433572335e-09
1.292424889e-08
1.821488907e-08
2.320063114e-08
2.777976262e-08
3.185579066e-08
3.533982892e-08
3.815316573e-08
4.022988065e-08
4.151931024e-08
4.198816345e-08
4.162210395e-08
4.042665056e-08
3.842729885e-08
3.566883024e-08
3.221383907e-08
2.814056742e-08
2.354018887e-08
1.851371286e-08
1.31686964e-08
7.615947556e-09
1.966380688e-09
-3.671846537e-09
-9.195824351e-09
-1.450996081e-08
-1.952762032e-08
-2.417234754e-08
-2.83787148e-08
-3.209284041e-08
-3.527262512e-08
-3.788774608e-08
-3.991943521e-08
-4.136006102e-08
-4.221251624e-08
-4.248941563e-08
-4.221210234e-08
-4.140947498e-08
-4.011665558e-08
-3.837353709e-08
-3.622326536e-08
-3.371072308e-08
-3.088109258e-08
-2.777857511e-08
-2.444533766e-08
-2.092074519e-08
-1.724091059e-08
-1.343857575e-08
-9.543304216e-09
-5.581944605e-09
-1.579303074e-09
2.441053246e-09
6.455943955e-09
1.044175701e-08
1.437373997e-08
1.822545993e-08
2.196847699e-08
2.557225477e-08
2.900431509e-08
3.223062396e-08
3.521618286e-08
3.792578692e-08
4.032490413e-08
4.238062551e-08
4.406263283e-08
4.534413544e-08
4.620272531e-08
4.66211119e-08
4.658769914e-08
4.609698151e-08
4.514974191e-08
4.375304808e-08
4.192005515e-08
3.96696324e-08
3.702584312e-08
3.401731365e-08
3.067653217e-08
2.703912084e-08
2.314312006e-08
1.90283191e-08
1.47356588e-08
1.030672058e-08
5.783303436e-09
1.20708303e-09
-3.380667359e-09
-7.939314464e-09
-1.242908931e-08
-1.681132077e-08
-2.104869935e-08
-2.51055824e-08
-2.894834329e-08
-3.254575735e-08
-3.586940785e-08
-3.889409088e-08
-4.159819204e-08
-4.396400797e-08
-4.597798987e-08
-4.763089202e-08
-4.891781521e-08
-4.983814652e-08
-5.039540319e-08
-5.059699785e-08
-5.045394712e-08
-4.99805483e-08
-4.919404778e-08
-4.811432106e-08
-4.676357888e-08
-4.516610349e-08
-4.334801364e-08
-4.133704361e-08
-3.916231972e-08
-3.6854108e-08
-3.444350834e-08
-3.196207204e-08
-2.94413216e-08
-2.691216751e-08
-2.440422059e-08
-2.194501695e-08
-1.955918287e-08
-1.726758303e-08
-1.508650096e-08
-1.302691153e-08
-1.109390568e-08
-9.286326944e-09
-7.596665894e-09
-6.01125495e-09
-4.510777197e-09
-3.071095224e-09
-1.664369573e-09
-2.604290702e-10
1.171679891e-09
2.662042905e-09
4.238225277e-09
5.923717538e-09
7.736580602e-09
9.68838003e-09
1.178349025e-08
1.401881597e-08
1.63839604e-08
1.886183209e-08
2.142965135e-08
2.406028676e-08
2.672382302e-08
2.938924082e-08
3.202608257e-08
3.460597198e-08
3.710386586e-08
3.94989466e-08
4.177508504e-08
4.392085054e-08
4.592908209e-08
4.779608065e-08
4.952051559e-08
5.110216637e-08
5.254063781e-08
5.383418456e-08
5.497876847e-08
5.596744912e-08
5.679016137e-08
5.743390778e-08
5.788333836e-08
5.812166323e-08
5.81318119e-08
5.789773746e-08
5.740576088e-08
5.66458585e-08
5.561280487e-08
5.430710513e-08
5.273566734e-08
5.091217632e-08
4.885713009e-08
4.659751935e-08
4.41661044e-08
4.160026495e-08
3.894040407e-08
3.622790391e-08
3.350269779e-08
3.080056173e-08
2.815033325e-08
2.557133028e-08
2.307132635e-08
2.064548261e-08
1.827662997e-08
1.593722557e-08
1.359317423e-08
1.120947733e-08
8.757390078e-09
6.222460712e-09
3.612503336e-09
9.642834554e-10
-1.652447433e-09
-4.134948309e-09
-6.352692966e-09
-8.158550882e-09
-9.406073444e-09
-9.972201924e-09
-9.783785799e-09
-8.845348061e-09
-7.264689743e-09
-5.272323402e-09
-3.230484358e-09
-1.627716997e-09
-1.0558255e-09
-2.167377567e-09
-5.613839746e-09
-1.196678095e-08
-2.162715514e-08
-3.47302682e-08
-5.105643693e-08
-6.995933392e-08
-9.032558259e-08
-1.105804013e-07
-1.287554082e-07
-1.426356272e-07
-1.500030045e-07
-1.48983425e-07
-1.384862802e-07
-1.186300406e-07
-9.09973404e-08
-5.802000816e-08
-2.101975933e-08
-2.846072405e-10
3.911180491e-09
5.5126955e-09
6.362685504e-09
6.966083428e-09
7.444250459e-09
7.812688127e-09
8.05633074e-09
8.147703149e-09
8.058497684e-09
7.763784222e-09
7.242790634e-09
6.478595985e-09
5.456130278e-09
4.161417139e-09
2.580699099e-09
6.994658081e-10
-1.497495288e-09
-4.026294957e-09
-6.903813696e-09
-1.014788066e-08
-1.377734346e-08
-1.781155661e-08
-2.227088043e-08
-2.717620428e-08
-3.254986492e-08
-3.841445549e-08
-4.479386027e-08
-5.171251699e-08
-5.919634916e-08
-6.727176575e-08
-7.596660492e-08
-8.530952734e-08
-9.533030656e-08
-1.060601365e-07
-1.175310243e-07
-1.297762931e-07
-1.428307009e-07
-1.5673005e-07
-1.715115008e-07
-1.872136758e-07
-2.038765531e-07
-2.215415895e-07
-2.402515087e-07
-2.600508301e-07
-2.809855435e-07
-3.031030446e-07
-3.264525878e-07
-3.510851259e-07
-3.770530822e-07
-4.044109082e-07
-4.332146591e-07
-4.635224487e-07
-4.953939861e-07
-5.288910914e-07
-5.640775232e-07
-6.010190725e-07
-6.397835518e-07
-6.804407767e-07
-7.23062709e-07
-7.677236665e-07
-8.144998461e-07
-8.634700041e-07
-9.147148848e-07
-9.683178027e-07
-1.024364088e-06
-1.082941773e-06
-1.144141185e-06
-1.208054941e-06
-1.274778443e-06
-1.3444093e-06
-1.417047778e-06
-1.49279655e-06
-1.571761216e-06
-1.654049486e-06
-1.739772204e-06
-1.829042355e-06
-1.921975912e-06
-2.018691306e-06
-2.119309831e-06
-2.223955321e-06
-2.332754318e-06
-2.445836271e-06
-2.563332784e-06
-2.685378866e-06
-2.812111608e-06
-2.943671249e-06
-3.080200431e-06
-3.221844372e-06
-3.368751229e-06
-3.52107163e-06
-3.678958755e-06
-3.84256851e-06
-4.012059224e-06
-4.187591784e-06
-4.369329691e-06
-4.557438611e-06
-4.752086875e-06
-4.953445035e-06
-5.161686025e-06
-5.376985058e-06
-5.599519334e-06
-5.82946863e-06
-6.067014267e-06
-6.312340066e-06
-6.565631635e-06
-6.827076199e-06
-7.096863151e-06
-7.375183502e-06
-7.662229829e-06
-7.95819637e-06
-8.263278848e-06
-8.577674191e-06
-8.901580893e-06
-9.235198448e-06
-9.578727638e-06
-9.932369929e-06
-1.029632834e-05
-1.0670806e-05
-1.105600716e-05
-1.145213655e-05
-1.18593995e-05
-1.22780017e-05
-1.270814908e-05
-1.315004803e-05
-1.360390453e-05
-1.406992517e-05
-1.454831591e-05
-1.503928293e-05
-1.554303179e-05
-1.605976771e-05
-1.658969556e-05
-1.713301946e-05
-1.768994316e-05
-1.826066925e-05
-1.884539953e-05
-1.944433528e-05
-2.005767637e-05
-2.068562179e-05
-2.132836971e-05
-2.198611658e-05
-2.265905804e-05
-2.334738826e-05
-2.405130057e-05
-2.47709864e-05
-2.55066365e-05
-2.625843967e-05
-2.702658391e-05
-2.781125593e-05
-2.861264091e-05
-2.943092308e-05
-3.026628522e-05
-3.111890954e-05
-3.198897671e-05
-3.287666696e-05
-3.378215936e-05
-3.470563246e-05
-3.564726453e-05
-3.660723305e-05
-3.758571563e-05
-3.858288986e-05
-3.959893336e-05
-4.063402473e-05
-4.168834251e-05
-4.276206681e-05
-4.385537925e-05
-4.496846225e-05
-4.610150096e-05
-4.725468238e-05
-4.842819647e-05
-4.962223646e-05
-5.083699852e-05
-5.207268363e-05
-5.332949695e-05
-5.460764853e-05
-5.590735414e-05
-5.722883609e-05
-5.857232285e-05
-5.993805063e-05
-6.132626409e-05
-6.27372159e-05
-6.41711688e-05
-6.562839583e-05
-6.710918097e-05
-6.861381981e-05
-7.014262153e-05
-7.169590809e-05
-7.32740169e-05
-7.487730033e-05
-7.65061277e-05
-7.816088627e-05
-7.984198146e-05
-8.154983921e-05
-8.328490595e-05
-8.504765092e-05
-8.683856694e-05
-8.865817126e-05
-9.050700768e-05
-9.23856477e-05
-9.429469173e-05
-9.623477053e-05
-9.820654744e-05
-0.0001002107186
-0.000102248017
-0.0001043192106
-0.0001064251075
-0.0001085665561
-0.0001107444467
-0.0001129597141
-0.0001152133397
-0.0001175063519
-0.0001198398314
-0.0001222149091
-0.0001246327723
-0.000127094664
-0.0001296018864
-0.0001321558048
-0.0001347578471
-0.0001374095081
-0.0001401123515
-0.0001428680137
-0.0001456782054
-0.0001485447143
-0.0001514694089
-0.000154454241
-0.0001575012492
-0.0001606125607
-0.0001637903969
-0.0001670370752
-0.0001703550116
-0.0001737467267
-0.0001772148484
-0.0001807621144
-0.0001843913783
-0.0001881056112
-0.0001919079085
-0.0001958014922
-0.0001997897165
-0.0002038760726
-0.0002080641923
-0.0002123578534
-0.000216760986
-0.0002212776771
-0.0002259121752
-0.0002306688975
-0.0002355524364
-0.0002405675637
-0.0002457192379
-0.0002510126144
-0.0002564530465
-0.0002620460987
-0.0002677975531
-0.0002737134161
-0.0002797999281
-0.0002860635741
-0.0002925110914
-0.0002991494767
-0.0003059860006
-0.0003130282114
-0.0003202839374
-0.0003277612662
-0.0003354684223
-0.0003434167623
-0.0003515651974
-0.000359975099
-0.0003686939593
-0.0003777953339
-0.0003871605333
-0.00039679738
-0.0004067173573
-0.000416932596
-0.0004274559756
-0.0004383010739
-0.0004494822438
-0.0004610146823
-0.0004729145418
-0.0004851983978
-0.0004978960227
-0.0005112343488
-0.0005250435065
-0.0005393383444
-0.0005541428145
-0.0005694268609
-0.0005852216705
-0.0006015901509
-0.0006185596699
-0.0006361572454
-0.0006544120988
-0.0006733555234
-0.0006930209441
-0.000713444099
-0.0007346632425
-0.0007567193794
-0.0007796565535
-0.000803522125
-0.000828367122
-0.0008542466156
-0.0008812201253
-0.0009093520904
-0.0009387123908
-0.0009693769106
-0.001001428194
-0.001034956142
-0.001070058831
-0.001106843377
-0.001145426947
-0.001185937845
-0.001228516751
-0.001273318094
-0.001320511573
-0.001370283874
-0.001422840561
-0.001478408206
-0.001537236738
-0.001599602099
-0.001665809163
-0.001736195029
-0.001811132659
-0.001891034955
-0.001976359307
-0.002067612623
-0.002165356996
-0.002270215962
-0.002382881521
-0.002504121897
-0.00263479027
-0.002775834414
-0.002928307496
-0.003093380051
-0.003272353366
-0.003466674346
-0.003677952076
-0.003907976244
-0.004158737649
-0.004432451041
-0.00473158048
-0.005058867599
-0.005417363009
-0.005810461195
-0.006241939424
-0.006716000775
-0.007237322239
-0.007811107933
-0.008443148338
-0.009139886094
-0.009908489
-0.01075693112
-0.01169408281
-0.01272981058
-0.01387508797
-0.01514211845
-0.01654447176
-0.01809723511
-0.01981718065
-0.02172295106
-0.02383526526
-0.02617714602
-0.02877417201
-0.03165475669
-0.03485045692
-0.03839631364
-0.04233122949
-0.04669838467
-0.05154569716
-0.05692632976
-0.06289925029
-0.06952984781
-0.07689061223
-0.08506188253
-0.09413266823
-0.1042015533
-0.1153776877
-0.1277818741
-0.1415477587
-0.1568231313
-0.1737713482
-0.1925728772
-0.2134269848
-0.2365535585
-0.2621950874
-0.2906187925
-0.3221189189
-0.3570191905
-0.3956754271
-0.4384783088
-0.4858562976
-0.5382786743
-0.5962586773
-0.6603567092
-0.7311835391
-0.809403456
-0.8957372528
-0.9909649441
-1.095928061
-1.21153131
-1.338743387
-1.478596649
-1.632185251
-1.800661373
-1.985228975
-2.187134509
-2.407653854
-2.648074693
-2.909673396
-3.19368546
-3.501268343
-3.83345563
-4.191104272
-4.574817741
-4.984883031
-5.421171342
-5.883038433
-6.369211968
-6.877664925
-7.405505386
-7.948823814
-8.502585738
-9.060520198
-9.615037364
-10.15718392
-10.67665017
-11.16184223
-11.60003192
-11.977594
-12.28033494
-12.49391078
-12.60432459
-12.59847773
-12.46475528
-12.19359816
-11.77802605
-11.21406849
-10.50105918
-9.641802147
-8.642516711
-7.512656782
-6.264557918
-4.912952994
-3.474469616
-1.967008607
-0.4092971297
1.179597767
2.780800472
4.376610634
5.952468241
7.50065247
9.022385619
10.57996525
12.09386253
13.80592436
15.12264763
15.99734616
16.27890332
17.64024407
18.96090015
20.0801167
20.92692951
21.4052919
21.46302903
20.73884935
19.30350039
17.27439891
13.15429349
7.853440225
3.876316999
-6.311097387
-19.34487821
-34.77714218
-46.61315645
-65.80228674
-86.76569723
-108.9184559
-117.5884211
-140.9615397
-162.9770967
-182.2999498
-197.9042068
-209.7056285
-217.662968
-212.8476382
-214.9139932
-212.2592706
-211.507224
-209.8068911
-206.7724687
-202.2543211
-196.2035724
-187.1497052
-172.5627659
-157.4456676
-142.0253575
-126.5003113
-111.7434496
-98.69531684
-87.29511665
-77.31349053
-68.46650657
-58.46362152
-49.62768931
-42.62342516
-36.27864734
-30.65634217
-25.76229173
-21.55833421
-17.98189487
-14.9477174
-12.40660914
-10.27791361
-8.500537666
-7.020595523
-5.791242728
-4.772173036
-3.928967256
-3.232407429
-2.657812028
-2.184422062
-1.794831782
-1.47450204
-1.211322149
-0.9952300548
-0.8178852279
-0.6723886244
-0.5530443758
-0.4551578877
-0.3748656493
-0.3089923297
-0.2549312209
-0.210544538
-0.1740805547
-0.1441048853
-0.1194436468
-0.09913654684
-0.08239824037
-0.06858655233
-0.05717638657
-0.04773833333
-0.03992115009
-0.03343742964
-0.02805188611
-0.02357178797
-0.01983914953
-0.01672436063
-0.01412099164
-0.01194155779
-0.01011406616
-0.00857920042
-0.007288025474
-0.006200115223
-0.005282025016
-0.004506044608
-0.003849179499
-0.003292318192
-0.002819550857
-0.00241761132
-0.00207541958
-0.001783706283
-0.001534704089
-0.001321893679
-0.001139794415
-0.0009837915605
-0.0008499934399
-0.0007351131714
-0.000636370578
-0.0005514107006
-0.0004782359889
-0.0004151497783
-0.0003607090955
-0.0003136851855
-0.0002730304435
-0.0002378506665
-0.0002073817314
-0.0001809699628
-0.0001580555832
-0.0001381587384
-0.0001208676837
-0.0001058287802
-9.273801516e-05
-8.133380358e-05
-7.139087025e-05
-6.271504454e-05
-5.513882613e-05
-4.85176038e-05
-4.272642762e-05
-3.76572509e-05
-3.321657106e-05
-2.932341002e-05
-2.590758361e-05
-2.290821752e-05
-2.027247326e-05
-1.79544538e-05
-1.59142627e-05
-1.411719379e-05
-1.253303691e-05
-1.113547296e-05
-9.901558971e-06
-8.811279725e-06
-7.847162217e-06
-6.99394186e-06
-6.238273907e-06
-5.568483783e-06
-4.974350804e-06
-4.44692079e-06
-3.978343596e-06
-3.561732095e-06
-3.191039733e-06
-2.860954148e-06
-2.566804707e-06
-2.304482015e-06
-2.070367921e-06
-1.861274461e-06
-1.674390668e-06
-1.507236209e-06
-1.357620903e-06
-1.223609349e-06
-1.103490075e-06
-9.957484724e-07
-8.990431913e-07
-8.121854283e-07
-7.341208281e-07
-6.639135847e-07
-6.007324757e-07
-5.438386528e-07
-4.925748939e-07
-4.46356148e-07
-4.04661235e-07
-3.670255444e-07
-3.330345761e-07
-3.023183158e-07
-2.745461566e-07
-2.494225484e-07
-2.266830709e-07
-2.060910101e-07
-1.874342951e-07
-1.705228124e-07
-1.551860404e-07
-1.41270864e-07
-1.286397817e-07
-1.171692166e-07
-1.067480116e-07
-9.727614965e-08
-8.866355891e-08
-8.082909883e-08
-7.369960031e-08
-6.720909529e-08
-6.129804056e-08
-5.591267495e-08
-5.100442694e-08
-4.652939254e-08
-4.244787318e-08
-3.872394937e-08
-3.532510168e-08
-3.222189301e-08
-2.938764855e-08
-2.679819353e-08
-2.443160345e-08
-2.226798824e-08
-2.028930977e-08
-1.8479181e-08
-1.682272783e-08
-1.530643123e-08
-1.391800663e-08
-1.264628771e-08
-1.148111851e-08
-1.041325503e-08
-9.43429149e-09
-8.53657843e-09
-7.713143819e-09
-6.957632999e-09
-6.264264817e-09
-5.627771487e-09
-5.043337055e-09
-4.506579582e-09
-4.013496909e-09
-3.560445517e-09
-3.144089911e-09
-2.761388438e-09
-2.409562639e-09
-2.086078167e-09
-1.788619696e-09
-1.515061196e-09
-1.263467379e-09
-1.032066198e-09
-8.192342714e-10
-6.234836855e-10
-4.434584646e-10
-2.779174645e-10
-1.25721492e-10
1.417707993e-11
1.427363294e-10
2.608354501e-10
3.692786127e-10
4.688002986e-10
5.600837219e-10
6.437505114e-10
7.203763849e-10
7.904852956e-10
8.545620973e-10
9.130527359e-10
9.663655337e-10
1.014877747e-09
1.05893923e-09
1.098868249e-09
1.134962244e-09
1.167493289e-09
1.196715783e-09
1.222859939e-09
1.246141518e-09
1.266757926e-09
1.284896456e-09
1.300726753e-09
1.314406862e-09
1.326083895e-09
1.335894727e-09
1.343961976e-09
1.350406244e-09
1.355337005e-09
1.358854733e-09
1.361054756e-09
1.362026312e-09
1.361852697e-09
1.360611874e-09
1.358372893e-09
1.355203518e-09
1.351167281e-09
1.346320624e-09
1.340721599e-09
1.334421201e-09
1.327468145e-09
1.319908854e-09
1.311783878e-09
1.303134842e-09
1.293999206e-09
1.284413359e-09
1.274411042e-09
1.264024918e-09
1.253283212e-09
1.242214267e-09
1.23084432e-09
1.219201659e-09
1.207306603e-09
1.195184386e-09
1.18285469e-09
1.170338657e-09
1.157653894e-09
1.144818701e-09
1.131849412e-09
1.11876264e-09
1.105574208e-09
1.092299288e-09
1.078950399e-09
1.065541604e-09
1.052087072e-09
1.038596007e-09
1.025079399e-09
1.011548626e-09
9.980117223e-10
9.844802432e-10
9.709622682e-10
9.574650923e-10
9.439971328e-10
9.305649892e-10
9.171766085e-10
9.038388791e-10
8.905578222e-10
8.773401825e-10
8.641904716e-10
8.511142574e-10
8.381164308e-10
8.25202568e-10
8.123758221e-10
7.996402114e-10
7.869997816e-10
7.744594029e-10
7.620210802e-10
7.496873546e-10
7.374618654e-10
7.253468925e-10
7.133451485e-10
7.014589879e-10
6.896894953e-10
6.780403233e-10
6.665124306e-10
6.55106712e-10
6.4382421e-10
6.326665463e-10
6.216348701e-10
6.107308382e-10
5.99954819e-10
5.893065102e-10
5.787872499e-10
5.683977046e-10
5.581376375e-10
5.480084605e-10
5.380107969e-10
5.281434059e-10
5.184064862e-10
5.087998649e-10
4.993240611e-10
4.899778403e-10
4.807609088e-10
4.716731678e-10
4.627140921e-10
4.538830728e-10
4.451802037e-10
4.366047202e-10
4.281548724e-10
4.198319205e-10
4.116337953e-10
4.035596487e-10
3.95609082e-10
3.877806204e-10
3.800728971e-10
3.724862609e-10
3.650188394e-10
3.576696388e-10
3.504382399e-10
3.433224212e-10
3.363220899e-10
3.294351671e-10
3.226621619e-10
3.160008036e-10
3.094504462e-10
3.030089625e-10
2.966753989e-10
2.904489743e-10
2.843279365e-10
2.78311907e-10
2.723995425e-10
2.665893151e-10
2.608798066e-10
2.552695883e-10
2.497571102e-10
2.443419097e-10
2.390222976e-10
2.337967721e-10
2.286647422e-10
2.236243331e-10
2.186751768e-10
2.138154586e-10
2.090439562e-10
2.043593733e-10
1.99760554e-10
1.9524622e-10
1.908148577e-10
1.864654394e-10
1.821967189e-10
1.780076614e-10
1.738972126e-10
1.698646352e-10
1.659077601e-10
1.620248355e-10
1.582153995e-10
1.544781267e-10
1.508125367e-10
1.472174011e-10
1.436915042e-10
1.402331142e-10
1.368412525e-10
1.335150305e-10
1.30253378e-10
1.270554748e-10
1.239204047e-10
1.208466445e-10
1.178332659e-10
1.148788724e-10
1.119825812e-10
1.091439464e-10
1.063617074e-10
1.036351218e-10
1.009623262e-10
9.834312858e-11
9.577653625e-11
9.326149034e-11
9.079707506e-11
8.8382648e-11
8.601701661e-11
8.369924921e-11
8.142846553e-11
7.920396101e-11
7.702508708e-11
7.489061563e-11
7.27998216e-11
7.075170677e-11
6.87455497e-11
6.67808741e-11
6.485654645e-11
6.297217847e-11
6.112659265e-11
5.931967902e-11
5.755026766e-11
5.58180006e-11
5.412186865e-11
5.246089953e-11
5.083482524e-11
4.924275386e-11
4.768408882e-11
4.615820427e-11
4.466479514e-11
4.320281016e-11
4.177159344e-11
4.037090351e-11
3.899972789e-11
3.765806749e-11
3.6345227e-11
3.506065555e-11
3.380330816e-11
3.257261114e-11
3.136819929e-11
3.018981869e-11
2.903649903e-11
2.790796101e-11
2.680365043e-11
2.572323742e-11
2.466614477e-11
2.363200149e-11
2.262041279e-11
2.163079249e-11
2.066263493e-11
1.971551123e-11
1.878941113e-11
1.788347543e-11
1.699731919e-11
1.613034577e-11
1.528205234e-11
1.445240545e-11
1.364128301e-11
1.284815224e-11
1.207268697e-11
1.131397286e-11
1.057187264e-11
9.846323403e-12
9.136926887e-12
8.443053696e-12
7.764615225e-12
7.101392597e-12
6.453044663e-12
5.819269636e-12
5.199682084e-12
4.59390182e-12
4.001873407e-12
3.423184082e-12
2.857184624e-12
2.304066247e-12
1.763306836e-12
1.234705242e-12
7.179219971e-13
2.129940994e-13
-2.803700847e-13
-7.626388609e-13
-1.233995098e-12
-1.694661072e-12
-2.144811507e-12
-2.584752938e-12
-3.014597064e-12
-3.434268947e-12
-3.844217757e-12
-4.244773427e-12
-4.636074742e-12
-5.01833961e-12
-5.391700827e-12
-5.756543369e-12
-6.113001246e-12
-6.461061021e-12
-6.800974106e-12
-7.132920976e-12
-7.457022886e-12
-7.773377143e-12
-8.082174686e-12
-8.383595617e-12
-8.677969546e-12
-8.965482077e-12
-9.246255512e-12
-9.520365498e-12
-9.787750352e-12
-1.004883276e-11
-1.030336355e-11
-1.055167463e-11
-1.079385028e-11
-1.102992802e-11
-1.126028721e-11
-1.148485536e-11
-1.170363039e-11
-1.19167584e-11
-1.21242132e-11
-1.232606008e-11
-1.252214858e-11
-1.271257615e-11
-1.28970359e-11
-1.307580231e-11
-1.324893492e-11
-1.34163437e-11
-1.357817513e-11
-1.373518652e-11
-1.388631978e-11
-1.403632584e-11
-1.418119714e-11
-1.432770984e-11
-1.448063383e-11
-1.464322924e-11
-1.479968764e-11
-1.593669474e-11
-1.405322322e-11
-1.298752618e-11
-1.174121486e-11
-1.040153043e-11
-9.039197873e-12
-7.695696153e-12
-6.404307788e-12
-5.187594424e-12
-4.061667143e-12
-3.040138941e-12
-2.134734842e-12
-1.350199064e-12
-6.929869691e-13
-1.670356448e-13
2.243944728e-13
4.800841364e-13
5.996264945e-13
5.82483071e-13
4.295718125e-13
1.423117736e-13
-2.773561649e-13
-8.269296259e-13
-1.502949073e-12
-2.302300651e-12
-3.220302883e-12
-4.252361399e-12
-5.393157441e-12
-6.636798425e-12
-7.976772187e-12
-9.406029379e-12
-1.091673286e-11
-1.250046945e-11
-1.414805468e-11
-1.584955606e-11
-1.759439957e-11
-1.93711492e-11
-2.116766506e-11
-2.297108662e-11
-2.47679162e-11
-2.654406157e-11
-2.828493388e-11
-2.997562786e-11
-3.16009496e-11
-3.314569184e-11
-3.459494085e-11
-3.593403743e-11
-3.714897769e-11
-3.822687419e-11
-3.915563129e-11
-3.992490224e-11
-4.052583564e-11
-4.095144853e-11
-4.119693632e-11
-4.125949654e-11
-4.113872779e-11
-4.083666032e-11
-4.035758196e-11
-3.97079937e-11
-3.889668325e-11
-3.793422054e-11
-3.683306473e-11
-3.560705561e-11
-3.427134763e-11
-3.284180999e-11
-3.133500078e-11
-2.976760655e-11
-2.815628199e-11
-2.65172721e-11
-2.48661901e-11
-2.321774744e-11
-2.158559782e-11
-1.998213824e-11
-1.841841782e-11
-1.690404669e-11
-1.544718492e-11
-1.405448717e-11
-1.273120003e-11
-1.14811698e-11
-1.030697049e-11
-9.209929773e-12
-8.190382057e-12
-7.247608659e-12
-6.380156916e-12
-5.58585236e-12
-4.861946289e-12
-4.205255181e-12
-3.612273802e-12
-3.079260272e-12
-2.602350689e-12
-2.177613453e-12
-1.801146749e-12
-1.469082797e-12
-1.177699178e-12
-9.233896548e-13
-7.027279314e-13
-5.124644955e-13
-3.495422762e-13
-2.110997866e-13
-9.447055212e-14
2.819130533e-15
8.305674537e-14
1.483479603e-13
2.006251568e-13
2.416549893e-13
2.730442437e-13
2.96248396e-13
3.1257696e-13
3.232029891e-13
3.291636626e-13
3.313765211e-13
3.306359839e-13
3.276278657e-13
3.229339081e-13
3.170381163e-13
3.103394084e-13
3.031534952e-13
2.957273473e-13
2.882442056e-13
2.808335832e-13
2.735794395e-13
2.665273495e-13
2.596936973e-13
2.530699949e-13
2.466320332e-13
2.403440072e-13
2.341612471e-13
2.280376095e-13
2.219266331e-13
2.157847164e-13
2.095713083e-13
2.032517126e-13
1.967970108e-13
1.901855372e-13
1.83399606e-13
1.764297176e-13
1.692699723e-13
1.619202779e-13
1.543850616e-13
1.466698211e-13
1.387871416e-13
1.307497345e-13
1.225734414e-13
1.14275909e-13
1.058774125e-13
9.739739435e-14
8.88595396e-14
8.028798727e-14
7.170625698e-14
6.313985813e-14
5.461435701e-14
4.615483042e-14
3.778743398e-14
2.953754452e-14
2.142834078e-14
1.348209135e-14
5.719492996e-15
-1.840104316e-15
-9.181512497e-15
-1.62892201e-14
-2.315251941e-14
-2.976376907e-14
-3.61154373e-14
-4.220432325e-14
-4.803011483e-14
-5.359333645e-14
-5.889785434e-14
-6.394781011e-14
-6.874959243e-14
-7.331178881e-14
-7.764341262e-14
-8.175408216e-14
-8.565461698e-14
-8.93569168e-14
-9.287241277e-14
-9.621480808e-14
-9.939796099e-14
-1.024357671e-13
-1.053424145e-13
-1.08133867e-13
-1.108259114e-13
-1.134350174e-13
-1.159777685e-13
-1.184714682e-13
-1.209317917e-13
-1.233764978e-13
-1.258208393e-13
-1.282791615e-13
-1.307652713e-13
-1.332914703e-13
-1.358671224e-13
-1.385008935e-13
-1.41197639e-13
-1.439592481e-13
-1.467859655e-13
-1.496741408e-13
-1.526166117e-13
-1.556029128e-13
-1.58619375e-13
-1.616505881e-13
-1.646747032e-13
-1.676694725e-13
-1.706088431e-13
-1.734640103e-13
-1.762038483e-13
-1.787950857e-13
-1.812025092e-13
-1.833890256e-13
-1.85317304e-13
-1.869483543e-13
-1.882425651e-13
-1.891608885e-13
-1.896651669e-13
-1.897163132e-13
-1.892784359e-13
-1.883157561e-13
-1.867968741e-13
-1.84690448e-13
-1.819696515e-13
-1.78611306e-13
-1.745956213e-13
-1.699074249e-13
-1.645360309e-13
-1.584757588e-13
-1.517261293e-13
-1.442923723e-13
-1.361846463e-13
-1.27420196e-13
-1.180201031e-13
-1.080131381e-13
-9.743230185e-14
-8.631690456e-14
-7.471079193e-14
-6.266365516e-14
-5.022987265e-14
-3.746673185e-14
-2.443867919e-14
-1.121019193e-14
2.149643849e-15
1.556959162e-14
2.897507926e-14
4.229225678e-14
5.544587426e-14
6.835976782e-14
8.0962375e-14
9.318146139e-14
1.049526978e-13
1.162205628e-13
1.269473068e-13
1.371933241e-13
)
;

boundaryField
{
    inlet
    {
        type            calculated;
        value           uniform 0;
    }
    outlet
    {
        type            calculated;
        value           uniform 1.401825427e-13;
    }
    wall
    {
        type            empty;
    }
}


// ************************************************************************* //
