/*--------------------------------*- C++ -*----------------------------------*\
  =========                 |
  \\      /  F ield         | OpenFOAM: The Open Source CFD Toolbox
   \\    /   O peration     | Website:  https://openfoam.org
    \\  /    A nd           | Version:  7
     \\/     M anipulation  |
\*---------------------------------------------------------------------------*/
FoamFile
{
    version     2.0;
    format      ascii;
    class       volScalarField;
    location    "0.000558243009";
    object      ddt0(rho,NC3H7CO);
}
// * * * * * * * * * * * * * * * * * * * * * * * * * * * * * * * * * * * * * //

dimensions      [1 -3 -1 0 0 0 0];

internalField   nonuniform List<scalar> 
1500
(
-1.104480142e-22
-5.125264888e-22
-1.225788334e-21
-1.99832944e-21
-2.546744576e-21
-2.80707284e-21
-2.880876464e-21
-2.880741328e-21
-2.866556369e-21
-2.85682079e-21
-2.852839456e-21
-2.85220617e-21
-2.852973899e-21
-2.854131367e-21
-2.855244738e-21
-2.856163508e-21
-2.856860464e-21
-2.857355915e-21
-2.857681862e-21
-2.857865895e-21
-2.857926393e-21
-2.857873972e-21
-2.857715599e-21
-2.857458794e-21
-2.857114378e-21
-2.856697277e-21
-2.856225705e-21
-2.855719436e-21
-2.855197922e-21
-2.854678804e-21
-2.854177092e-21
-2.853705e-21
-2.853272271e-21
-2.852886704e-21
-2.852554668e-21
-2.852281451e-21
-2.852071413e-21
-2.851927975e-21
-2.85185349e-21
-2.851849076e-21
-2.851914479e-21
-2.85204803e-21
-2.852246698e-21
-2.852506224e-21
-2.852821297e-21
-2.853185749e-21
-2.853592733e-21
-2.854034882e-21
-2.854504452e-21
-2.854993444e-21
-2.855493727e-21
-2.855997149e-21
-2.856495667e-21
-2.856981474e-21
-2.857447125e-21
-2.857885664e-21
-2.858290738e-21
-2.858656698e-21
-2.858978685e-21
-2.859252699e-21
-2.859475648e-21
-2.859645368e-21
-2.859760634e-21
-2.85982115e-21
-2.859827518e-21
-2.859781197e-21
-2.859684434e-21
-2.859540189e-21
-2.859352023e-21
-2.859123992e-21
-2.858860517e-21
-2.85856626e-21
-2.858245994e-21
-2.857904484e-21
-2.857546389e-21
-2.857176174e-21
-2.856798063e-21
-2.856416001e-21
-2.856033652e-21
-2.855654414e-21
-2.855281447e-21
-2.854917717e-21
-2.854566041e-21
-2.854229126e-21
-2.853909602e-21
-2.853610049e-21
-2.853333002e-21
-2.853080949e-21
-2.852856305e-21
-2.852661375e-21
-2.852498302e-21
-2.852369013e-21
-2.852275156e-21
-2.852218047e-21
-2.852198615e-21
-2.85221736e-21
-2.852274329e-21
-2.852369095e-21
-2.852500764e-21
-2.852667993e-21
-2.852869022e-21
-2.853101726e-21
-2.853363674e-21
-2.85365219e-21
-2.853964427e-21
-2.854297427e-21
-2.854648184e-21
-2.855013684e-21
-2.855390946e-21
-2.855777038e-21
-2.856169088e-21
-2.856564278e-21
-2.856959836e-21
-2.857353013e-21
-2.857741079e-21
-2.858121299e-21
-2.858490942e-21
-2.858847282e-21
-2.859187622e-21
-2.859509326e-21
-2.859809862e-21
-2.860086857e-21
-2.860338146e-21
-2.860561829e-21
-2.860756321e-21
-2.860920388e-21
-2.861053181e-21
-2.861154243e-21
-2.861223514e-21
-2.861261311e-21
-2.861268307e-21
-2.861245492e-21
-2.861194133e-21
-2.861115732e-21
-2.861011985e-21
-2.860884743e-21
-2.860735985e-21
-2.860567789e-21
-2.86038232e-21
-2.860181809e-21
-2.859968549e-21
-2.859744881e-21
-2.859513177e-21
-2.859275822e-21
-2.859035182e-21
-2.858793565e-21
-2.858553173e-21
-2.858316043e-21
-2.858083985e-21
-2.857858516e-21
-2.857640798e-21
-2.857431585e-21
-2.857231185e-21
-2.857039433e-21
-2.8568557e-21
-2.856678911e-21
-2.85650761e-21
-2.856340027e-21
-2.856174189e-21
-2.856008036e-21
-2.855839555e-21
-2.855666911e-21
-2.85548858e-21
-2.855303467e-21
-2.855110993e-21
-2.854911164e-21
-2.854704596e-21
-2.85449251e-21
-2.854276673e-21
-2.854059322e-21
-2.853843042e-21
-2.853630623e-21
-2.853424914e-21
-2.85322866e-21
-2.853044363e-21
-2.852874151e-21
-2.852719688e-21
-2.852582116e-21
-2.852462031e-21
-2.852359511e-21
-2.852274167e-21
-2.852205228e-21
-2.852151647e-21
-2.852112209e-21
-2.852085646e-21
-2.852070732e-21
-2.852066369e-21
-2.852071645e-21
-2.852085871e-21
-2.85210859e-21
-2.852139578e-21
-2.852178813e-21
-2.852226439e-21
-2.852282717e-21
-2.85234797e-21
-2.85242251e-21
-2.852506567e-21
-2.852600205e-21
-2.852703241e-21
-2.852815161e-21
-2.852935059e-21
-2.853061599e-21
-2.853193026e-21
-2.853327236e-21
-2.853461919e-21
-2.853594771e-21
-2.85372378e-21
-2.853847543e-21
-2.853965596e-21
-2.85407869e-21
-2.854188956e-21
-2.854299898e-21
-2.854416159e-21
-2.85454302e-21
-2.854685637e-21
-2.854848045e-21
-2.855032013e-21
-2.855235886e-21
-2.855453569e-21
-2.855673855e-21
-2.855880288e-21
-2.856051732e-21
-2.85616377e-21
-2.856190962e-21
-2.856109889e-21
-2.855902795e-21
-2.855561486e-21
-2.855091057e-21
-2.854512915e-21
-2.853866531e-21
-2.853209386e-21
-2.852614658e-21
-2.852166407e-21
-2.85195221e-21
-2.852053532e-21
-2.852534429e-21
-2.853429484e-21
-2.854732154e-21
-2.856384924e-21
-2.858272727e-21
-2.86022115e-21
-2.862000874e-21
-2.863340084e-21
-2.863947647e-21
-2.863552676e-21
-2.861972106e-21
-2.859217686e-21
-2.855634446e-21
-2.851912134e-21
-2.848525609e-21
-2.845978235e-21
-2.845794878e-21
-2.845635948e-21
-2.845494093e-21
-2.845367326e-21
-2.845255719e-21
-2.845160315e-21
-2.845082111e-21
-2.845022217e-21
-2.844981725e-21
-2.844961759e-21
-2.844963511e-21
-2.844988211e-21
-2.845037178e-21
-2.845111783e-21
-2.845213444e-21
-2.845343662e-21
-2.845504e-21
-2.845696092e-21
-2.845921639e-21
-2.846182428e-21
-2.846480346e-21
-2.846817343e-21
-2.84719548e-21
-2.847616893e-21
-2.848083873e-21
-2.84859877e-21
-2.849164086e-21
-2.849782414e-21
-2.850456524e-21
-2.851189281e-21
-2.851983735e-21
-2.85284307e-21
-2.853770641e-21
-2.854770005e-21
-2.855844875e-21
-2.85699918e-21
-2.858237075e-21
-2.859562925e-21
-2.860981343e-21
-2.862497207e-21
-2.864115671e-21
-2.865842184e-21
-2.867682494e-21
-2.869642708e-21
-2.871729281e-21
-2.873949036e-21
-2.876309221e-21
-2.878817524e-21
-2.881482074e-21
-2.88431152e-21
-2.887315025e-21
-2.890502338e-21
-2.893883788e-21
-2.897470367e-21
-2.901273755e-21
-2.905306373e-21
-2.909581431e-21
-2.91411297e-21
-2.918915936e-21
-2.924006249e-21
-2.92940083e-21
-2.935117719e-21
-2.941176103e-21
-2.947596435e-21
-2.954400469e-21
-2.961611407e-21
-2.969253946e-21
-2.977354389e-21
-2.985940771e-21
-2.995042934e-21
-3.004692673e-21
-3.014923838e-21
-3.025772506e-21
-3.037277052e-21
-3.049478374e-21
-3.062419968e-21
-3.076148151e-21
-3.090712195e-21
-3.106164528e-21
-3.122560901e-21
-3.139960595e-21
-3.158426638e-21
-3.178025963e-21
-3.198829735e-21
-3.220913472e-21
-3.244357381e-21
-3.269246547e-21
-3.295671218e-21
-3.323727107e-21
-3.353515638e-21
-3.385144251e-21
-3.418726724e-21
-3.454383462e-21
-3.49224184e-21
-3.53243654e-21
-3.575109865e-21
-3.620412138e-21
-3.668502025e-21
-3.719546932e-21
-3.773723374e-21
-3.831217343e-21
-3.892224757e-21
-3.956951779e-21
-4.025615307e-21
-4.098443328e-21
-4.175675328e-21
-4.257562762e-21
-4.344369427e-21
-4.43637189e-21
-4.533859921e-21
-4.637136901e-21
-4.746520221e-21
-4.862341729e-21
-4.984948095e-21
-5.114701237e-21
-5.251978663e-21
-5.397173932e-21
-5.550696896e-21
-5.712974147e-21
-5.884449293e-21
-6.065583292e-21
-6.256854731e-21
-6.458760081e-21
-6.67181398e-21
-6.896549365e-21
-7.133517755e-21
-7.383289307e-21
-7.646453009e-21
-7.923616697e-21
-8.215407124e-21
-8.522469967e-21
-8.845469757e-21
-9.18508983e-21
-9.542032116e-21
-9.917017002e-21
-1.031078312e-20
-1.072408698e-20
-1.115770267e-20
-1.161242147e-20
-1.208905132e-20
-1.258841636e-20
-1.311135631e-20
-1.365872589e-20
-1.4231394e-20
-1.483024309e-20
-1.545616819e-20
-1.611007617e-20
-1.679288468e-20
-1.750552113e-20
-1.82489217e-20
-1.902403011e-20
-1.983179654e-20
-2.067317624e-20
-2.154912837e-20
-2.246061456e-20
-2.340859751e-20
-2.439403965e-20
-2.541790151e-20
-2.64811403e-20
-2.758470833e-20
-2.872955139e-20
-2.991660727e-20
-3.11468039e-20
-3.242105799e-20
-3.374027329e-20
-3.510533883e-20
-3.651712752e-20
-3.797649437e-20
-3.948427498e-20
-4.104128407e-20
-4.264831372e-20
-4.430613229e-20
-4.601548275e-20
-4.777708139e-20
-4.95916167e-20
-5.145974819e-20
-5.338210524e-20
-5.535928627e-20
-5.739185806e-20
-5.948035474e-20
-6.162527764e-20
-6.38270948e-20
-6.608624076e-20
-6.840311658e-20
-7.077809032e-20
-7.321149705e-20
-7.570364002e-20
-7.82547912e-20
-8.086519275e-20
-8.353505847e-20
-8.626457543e-20
-8.905390632e-20
-9.190319164e-20
-9.481255282e-20
-9.778209521e-20
-1.008119116e-19
-1.039020863e-19
-1.070526997e-19
-1.102638329e-19
-1.135355733e-19
-1.168680206e-19
-1.202612924e-19
-1.237155327e-19
-1.272309177e-19
-1.308076655e-19
-1.34446044e-19
-1.381463806e-19
-1.419090724e-19
-1.457345977e-19
-1.496235265e-19
-1.535765345e-19
-1.575944148e-19
-1.61678094e-19
-1.658286459e-19
-1.70047308e-19
-1.743354997e-19
-1.786948389e-19
-1.831271623e-19
-1.876345457e-19
-1.922193256e-19
-1.968841226e-19
-2.016318645e-19
-2.06465813e-19
-2.113895905e-19
-2.164072082e-19
-2.215230963e-19
-2.267421361e-19
-2.32069693e-19
-2.375116509e-19
-2.430744503e-19
-2.487651267e-19
-2.545913504e-19
-2.605614707e-19
-2.666845589e-19
-2.729704574e-19
-2.794298273e-19
-2.860742007e-19
-2.929160354e-19
-2.999687702e-19
-3.072468848e-19
-3.14765962e-19
-3.225427525e-19
-3.305952418e-19
-3.389427216e-19
-3.476058647e-19
-3.566067998e-19
-3.659691938e-19
-3.757183376e-19
-3.858812297e-19
-3.964866721e-19
-4.075653656e-19
-4.191500084e-19
-4.312754018e-19
-4.43978561e-19
-4.572988277e-19
-4.712779859e-19
-4.859603845e-19
-5.013930568e-19
-5.176258523e-19
-5.347115928e-19
-5.527061532e-19
-5.716698065e-19
-5.916308184e-19
-6.126941607e-19
-6.349551491e-19
-6.585296191e-19
-6.834067207e-19
-7.096671854e-19
-7.373982608e-19
-7.666924069e-19
-7.976473968e-19
-8.303666225e-19
-8.649593757e-19
-9.015410707e-19
-9.402335859e-19
-9.81166138e-19
-1.0244855e-18
-1.070494921e-18
-1.119191912e-18
-1.170729265e-18
-1.225272722e-18
-1.282949502e-18
-1.343952767e-18
-1.408510881e-18
-1.476827915e-18
-1.549118417e-18
-1.625609172e-18
-1.706539488e-18
-1.792161864e-18
-1.882742828e-18
-1.978563873e-18
-2.0799225e-18
-2.187133406e-18
-2.300529778e-18
-2.420464805e-18
-2.547313397e-18
-2.681474179e-18
-2.823371846e-18
-2.973459965e-18
-3.13222433e-18
-3.300187054e-18
-3.477911558e-18
-3.666008785e-18
-3.865144902e-18
-4.076051024e-18
-4.299535465e-18
-4.536499345e-18
-4.787956517e-18
-5.055059107e-18
-5.339130403e-18
-5.641707266e-18
-5.964594989e-18
-6.309938366e-18
-6.680313931e-18
-7.078849745e-18
-7.509381224e-18
-7.976653884e-18
-8.486587385e-18
-9.046619545e-18
-9.666154609e-18
-1.035714773e-17
-1.113486696e-17
-1.2018887e-17
-1.303438509e-17
-1.421383126e-17
-1.559919273e-17
-1.724480888e-17
-1.922114076e-17
-2.161966078e-17
-2.455922899e-17
-2.81944072e-17
-3.272629891e-17
-3.841668129e-17
-4.560642693e-17
-5.473951504e-17
-6.63943248e-17
-8.132441469e-17
-1.005116568e-16
-1.252354623e-16
-1.571629574e-16
-1.984664405e-16
-2.519763486e-16
-3.213804483e-16
-4.114831827e-16
-5.28543297e-16
-6.807133145e-16
-8.786115053e-16
-1.136066195e-15
-1.471084203e-15
-1.907110726e-15
-2.474668151e-15
-3.213487443e-15
-4.175279772e-15
-5.427340175e-15
-7.057232312e-15
-9.178877743e-15
-1.194046961e-14
-1.553475572e-14
-2.021239847e-14
-2.629932924e-14
-3.421928839e-14
-4.452309519e-14
-5.792665113e-14
-7.536027408e-14
-9.803273122e-14
-1.275143353e-13
-1.658447613e-13
-2.156729146e-13
-2.80438342e-13
-3.64606488e-13
-4.739737184e-13
-6.160627251e-13
-8.006350041e-13
-1.040354927e-12
-1.351650095e-12
-1.755825747e-12
-2.280507963e-12
-2.961512236e-12
-3.84526232e-12
-4.991920628e-12
-6.479438585e-12
-8.40879605e-12
-1.091077713e-11
-1.41547306e-11
-1.835989315e-11
-2.381002077e-11
-3.087228877e-11
-4.002169775e-11
-5.187257696e-11
-6.721923316e-11
-8.708837398e-11
-1.128066813e-10
-1.460878582e-10
-1.891446773e-10
-2.448330848e-10
-3.168373319e-10
-4.099074911e-10
-5.301636808e-10
-6.854849052e-10
-8.860047217e-10
-1.144740903e-09
-1.478391776e-09
-1.908337523e-09
-2.461889673e-09
-3.173834623e-09
-4.088314713e-09
-5.261079859e-09
-6.762105763e-09
-8.678542838e-09
-1.111782169e-08
-1.421061245e-08
-1.811305466e-08
-2.300728892e-08
-2.909881378e-08
-3.660837755e-08
-4.575542243e-08
-5.672909111e-08
-6.964231818e-08
-8.446478513e-08
-1.009326006e-07
-1.18437753e-07
-1.359100611e-07
-1.517189673e-07
-1.636395306e-07
-1.689377037e-07
-1.646166637e-07
-1.47801853e-07
-1.161006842e-07
-6.75518414e-08
4.064406342e-10
9.320825943e-08
2.211478925e-07
3.962896616e-07
6.197169576e-07
8.650710653e-07
1.075824164e-06
1.188437314e-06
1.176078904e-06
1.084464663e-06
1.026491234e-06
1.143848927e-06
1.577323412e-06
2.467327618e-06
3.974418e-06
6.303040085e-06
9.722506424e-06
1.462287806e-05
2.145842792e-05
3.126246207e-05
4.409463599e-05
5.953015259e-05
7.332205864e-05
9.83388027e-05
0.0001159422719
0.000127996586
0.0001486792241
0.0002089306681
0.0003435483606
0.0005214223231
0.0006132747931
0.0005518295417
0.0004043310898
0.0002477206007
0.0001621436339
0.0001158309562
0.0001137081337
0.0001365490213
0.0001731227441
0.0002077091061
0.0002375712206
0.0002602103914
0.0002820735188
0.000299441941
0.000309298417
0.0003086812499
0.0002966081321
0.0002775541358
0.0002495303129
0.0002176684184
0.0001811327819
0.0001447632099
0.0001119487702
8.289525182e-05
5.812686013e-05
3.804755007e-05
2.2725898e-05
1.187966396e-05
5.410949391e-06
1.12366101e-06
-1.669286099e-06
-3.284290461e-06
-3.976898061e-06
-4.370310861e-06
-4.503149101e-06
-4.442544357e-06
-4.384105576e-06
-3.747925339e-06
-3.155418461e-06
-2.767525316e-06
-2.351781935e-06
-1.957297436e-06
-1.60707101e-06
-1.307905305e-06
-1.058289673e-06
-8.509889401e-07
-6.831432579e-07
-5.467056321e-07
-4.363437011e-07
-3.474298276e-07
-2.760405276e-07
-2.188958458e-07
-1.732791716e-07
-1.369559705e-07
-1.080986188e-07
-8.522000281e-08
-6.71146706e-08
-5.281017433e-08
-4.152487919e-08
-3.26326658e-08
-2.56335681e-08
-2.012949953e-08
-1.580431175e-08
-1.240750686e-08
-9.741008649e-09
-7.648471527e-09
-6.006679621e-09
-4.718654963e-09
-3.708156527e-09
-2.91530222e-09
-2.293094871e-09
-1.804672326e-09
-1.421135369e-09
-1.119835244e-09
-8.83025655e-10
-6.968031174e-10
-5.502749138e-10
-4.349063964e-10
-3.440093676e-10
-2.723412944e-10
-2.157914965e-10
-1.711355189e-10
-1.358429199e-10
-1.079268756e-10
-8.582650918e-11
-6.831481712e-11
-5.442661343e-11
-4.340212826e-11
-3.464284613e-11
-2.767691493e-11
-2.213204023e-11
-1.771423454e-11
-1.419114792e-11
-1.137898426e-11
-9.132225573e-12
-7.335555894e-12
-5.897509513e-12
-4.745471426e-12
-3.821739005e-12
-3.080417184e-12
-2.484968576e-12
-2.006278727e-12
-1.62112682e-12
-1.310975749e-12
-1.061014063e-12
-8.593966029e-13
-6.966420561e-13
-5.651545973e-13
-4.588436763e-13
-3.728215635e-13
-3.031625011e-13
-2.467107721e-13
-2.009275715e-13
-1.637687605e-13
-1.335871795e-13
-1.090545117e-13
-8.909873034e-14
-7.285399033e-14
-5.96204484e-14
-4.883201124e-14
-4.003043747e-14
-3.284451843e-14
-2.697333432e-14
-2.217276641e-14
-1.824463935e-14
-1.502795844e-14
-1.239184441e-14
-1.022982605e-14
-8.455229571e-15
-6.997447866e-15
-5.798924241e-15
-4.812708835e-15
-4.000477189e-15
-3.330924698e-15
-2.778464275e-15
-2.322167631e-15
-1.944905778e-15
-1.632649421e-15
-1.373901041e-15
-1.159230833e-15
-9.809001351e-16
-8.325536711e-16
-7.089685845e-16
-6.058498169e-16
-5.196626392e-16
-4.474961536e-16
-3.869514003e-16
-3.360498119e-16
-2.931585857e-16
-2.569288654e-16
-2.262457668e-16
-2.001869299e-16
-1.779887454e-16
-1.59018419e-16
-1.427511558e-16
-1.287512755e-16
-1.166567403e-16
-1.061664827e-16
-9.702984027e-17
-8.90378385e-17
-8.201610372e-17
-7.581895936e-17
-7.032455168e-17
-6.543076407e-17
-6.105194228e-17
-5.711613135e-17
-5.356275059e-17
-5.03407221e-17
-4.740689664e-17
-4.472474419e-17
-4.226326615e-17
-3.999610901e-17
-3.790078894e-17
-3.595809537e-17
-3.415154963e-17
-3.246698862e-17
-3.089218544e-17
-2.941655234e-17
-2.803089319e-17
-2.672719174e-17
-2.549842505e-17
-2.433842731e-17
-2.324175141e-17
-2.22035733e-17
-2.121960479e-17
-2.028601e-17
-1.939934994e-17
-1.855652608e-17
-1.775473847e-17
-1.699144391e-17
-1.626432713e-17
-1.557126786e-17
-1.491032162e-17
-1.427969881e-17
-1.367774755e-17
-1.310293522e-17
-1.255384074e-17
-1.202914014e-17
-1.152759804e-17
-1.10480601e-17
-1.058944358e-17
-1.015073364e-17
-9.730973119e-18
-9.329262077e-18
-8.944753438e-18
-8.576645603e-18
-8.224181072e-18
-7.886643212e-18
-7.563352983e-18
-7.253667018e-18
-6.956974559e-18
-6.672695335e-18
-6.400278742e-18
-6.139200878e-18
-5.888963442e-18
-5.649092337e-18
-5.419136168e-18
-5.198664845e-18
-4.987268637e-18
-4.784556837e-18
-4.590156983e-18
-4.403713801e-18
-4.224888133e-18
-4.053356488e-18
-3.888809992e-18
-3.730953678e-18
-3.579505724e-18
-3.434197016e-18
-3.294770454e-18
-3.160980167e-18
-3.032591368e-18
-2.909379445e-18
-2.791129666e-18
-2.677636613e-18
-2.568703892e-18
-2.464143613e-18
-2.363775924e-18
-2.267428791e-18
-2.174937627e-18
-2.086144888e-18
-2.000899702e-18
-1.919057633e-18
-1.840480371e-18
-1.765035487e-18
-1.692596154e-18
-1.623040901e-18
-1.556253337e-18
-1.492121951e-18
-1.430539922e-18
-1.371404879e-18
-1.314618711e-18
-1.260087402e-18
-1.207720812e-18
-1.157432531e-18
-1.109139696e-18
-1.062762899e-18
-1.018225944e-18
-9.754558138e-19
-9.343824533e-19
-8.9493867e-19
-8.570600133e-19
-8.206846378e-19
-7.857532102e-19
-7.522088238e-19
-7.199968308e-19
-6.890648228e-19
-6.593625037e-19
-6.308415831e-19
-6.034557073e-19
-5.771603981e-19
-5.519129353e-19
-5.27672336e-19
-5.043992164e-19
-4.820557703e-19
-4.606056998e-19
-4.400141377e-19
-4.202475968e-19
-4.012739291e-19
-3.830622291e-19
-3.655828271e-19
-3.488072205e-19
-3.327080351e-19
-3.172589612e-19
-3.024347212e-19
-2.882110214e-19
-2.745645207e-19
-2.614727928e-19
-2.48914289e-19
-2.368682913e-19
-2.253148871e-19
-2.142349499e-19
-2.036100732e-19
-1.934225861e-19
-1.836554945e-19
-1.742924599e-19
-1.653177723e-19
-1.56716335e-19
-1.484736249e-19
-1.4057569e-19
-1.33009107e-19
-1.257609704e-19
-1.188188709e-19
-1.121708812e-19
-1.058055192e-19
-9.971175378e-20
-9.387897268e-20
-8.829697249e-20
-8.295593863e-20
-7.784643419e-20
-7.295937637e-20
-6.828603147e-20
-6.381800566e-20
-5.954722271e-20
-5.546591376e-20
-5.156660445e-20
-4.784211035e-20
-4.428551352e-20
-4.089016583e-20
-3.764967571e-20
-3.45578839e-20
-3.160887297e-20
-2.879694965e-20
-2.61166427e-20
-2.356268243e-20
-2.112999997e-20
-1.881372334e-20
-1.660916679e-20
-1.451181844e-20
-1.251734331e-20
-1.062156771e-20
-8.82047689e-21
-7.110212937e-21
-5.487064696e-21
-3.947460332e-21
-2.487966379e-21
-1.105280067e-21
2.0377578e-22
1.442256889e-21
2.613099979e-21
3.719130452e-21
4.763066338e-21
5.747520293e-21
6.675004695e-21
7.547934526e-21
8.368633876e-21
9.139333832e-21
9.862184571e-21
1.053924852e-20
1.117250958e-20
1.176387598e-20
1.231516378e-20
1.282817437e-20
1.330458314e-20
1.374601903e-20
1.415404762e-20
1.453016195e-20
1.487580612e-20
1.519237093e-20
1.548118972e-20
1.574354505e-20
1.598066837e-20
1.619374149e-20
1.638390023e-20
1.655223515e-20
1.6699792e-20
1.682757639e-20
1.693655361e-20
1.702764937e-20
1.710175175e-20
1.715971513e-20
1.720235735e-20
1.723046485e-20
1.724479062e-20
1.724605747e-20
1.723495925e-20
1.721216045e-20
1.717829874e-20
1.713398492e-20
1.707980537e-20
1.701632162e-20
1.694407119e-20
1.686356943e-20
1.677530988e-20
1.667976582e-20
1.657738981e-20
1.646861551e-20
1.635385771e-20
1.623351248e-20
1.610795971e-20
1.597756271e-20
1.58426684e-20
1.570360924e-20
1.556070185e-20
1.54142499e-20
1.52645423e-20
1.511185583e-20
1.495645429e-20
1.479858905e-20
1.463850038e-20
1.447641747e-20
1.431255861e-20
1.41471315e-20
1.398033446e-20
1.381235574e-20
1.364337489e-20
1.347356255e-20
1.33030813e-20
1.313208496e-20
1.296071997e-20
1.278912547e-20
1.26174331e-20
1.244576771e-20
1.227424768e-20
1.210298498e-20
1.193208584e-20
1.176164996e-20
1.159177236e-20
1.142254221e-20
1.125404351e-20
1.108635544e-20
1.091955244e-20
1.075370472e-20
1.058887781e-20
1.042513315e-20
1.026252826e-20
1.010111707e-20
9.940949437e-21
9.782072072e-21
9.624528289e-21
9.468358308e-21
9.313599156e-21
9.160285167e-21
9.008447736e-21
8.858115747e-21
8.709315197e-21
8.562069976e-21
8.41640171e-21
8.272329659e-21
8.129871168e-21
7.989041317e-21
7.84985333e-21
7.712318769e-21
7.5764475e-21
7.442247518e-21
7.309725474e-21
7.178886334e-21
7.049733863e-21
6.922270329e-21
6.796496821e-21
6.672413064e-21
6.550017882e-21
6.429308859e-21
6.310282524e-21
6.192934499e-21
6.077259468e-21
5.963251272e-21
5.850902879e-21
5.740206508e-21
5.631153787e-21
5.523735511e-21
5.417941897e-21
5.313762636e-21
5.21118671e-21
5.110202682e-21
5.010798636e-21
4.912962103e-21
4.816680271e-21
4.721939977e-21
4.628727574e-21
4.537029296e-21
4.446830873e-21
4.358117858e-21
4.270875498e-21
4.185088818e-21
4.100742688e-21
4.017821762e-21
3.936310578e-21
3.856193482e-21
3.777454739e-21
3.700078422e-21
3.62404868e-21
3.549349533e-21
3.475964936e-21
3.403878804e-21
3.33307505e-21
3.263537572e-21
3.19525031e-21
3.128197235e-21
3.062362352e-21
2.997729726e-21
2.934283485e-21
2.872007858e-21
2.810887203e-21
2.750905939e-21
2.692048649e-21
2.634300043e-21
2.577644973e-21
2.522068436e-21
2.467555676e-21
2.414092076e-21
2.361663233e-21
2.310254959e-21
2.259853347e-21
2.210444678e-21
2.162015544e-21
2.114552806e-21
2.068043611e-21
2.022475398e-21
1.977835987e-21
1.934113537e-21
1.891296539e-21
1.84937392e-21
1.80833528e-21
1.768169723e-21
1.728867705e-21
1.690419824e-21
1.652817168e-21
1.616051257e-21
1.580114135e-21
1.544998521e-21
1.510697517e-21
1.477204713e-21
1.44451436e-21
1.412621384e-21
1.381521557e-21
1.351211656e-21
1.321689587e-21
1.292954554e-21
1.265006634e-21
1.237845957e-21
1.211468662e-21
1.185863239e-21
1.16098588e-21
1.136769986e-21
1.112989783e-21
1.089352497e-21
1.065162064e-21
1.039261868e-21
1.009747262e-21
9.737570945e-22
5.912634011e-22
5.373406932e-22
3.713841758e-22
2.532579978e-22
1.710568712e-22
1.143977292e-22
7.572665619e-23
4.958925415e-23
3.209904113e-23
2.051652742e-23
1.293022281e-23
8.019659266e-24
4.881756481e-24
2.905130744e-24
1.68016908e-24
9.35395982e-25
4.92936181e-25
2.376599688e-25
9.604500645e-26
2.182828691e-26
-1.360534814e-26
-2.760737321e-26
-3.044630717e-26
-2.801380615e-26
-2.355199671e-26
-1.873782694e-26
-1.435376823e-26
-1.069182343e-26
-7.792466045e-27
-5.580272585e-27
-3.938415092e-27
-2.745658978e-27
-1.894394604e-27
-1.295381078e-27
-8.791746054e-28
-5.929367028e-28
-3.978447939e-28
-2.658283602e-28
-1.771416927e-28
-1.178396118e-28
-7.83382378e-29
-5.211052709e-29
-3.47497448e-29
-2.320204477e-29
-1.556257649e-29
-1.046354649e-29
-7.095647369e-30
-4.870407242e-30
-3.254447162e-30
-2.299978105e-30
-1.565802396e-30
-1.122848296e-30
-8.485660805e-31
-5.941343091e-31
-3.922693248e-31
-2.704177021e-31
-2.212827586e-31
-9.484536429e-32
-1.021229791e-31
-5.583317395e-32
-7.093396166e-32
-2.142236795e-32
-4.714703175e-32
-1.53899867e-32
-3.642370406e-33
-6.974699237e-33
-3.153109742e-33
-8.011575193e-33
-8.238440377e-33
-7.586332022e-33
3.06924439e-33
-6.709370063e-33
1.274101011e-32
2.518979532e-33
3.532651098e-33
-2.967704222e-33
5.171908882e-34
-6.453852722e-33
-3.956149607e-33
-1.806856201e-32
-9.217224919e-33
1.378217929e-32
1.146815731e-32
-3.523371738e-35
5.644302364e-33
5.739374177e-33
3.407206787e-33
-1.052049e-33
-1.711571165e-33
1.69319982e-33
-3.892929901e-36
-1.384233204e-34
8.008542209e-34
3.911775019e-35
8.130928263e-38
3.471568903e-35
-7.589067677e-35
3.80685179e-36
-2.517892666e-34
2.100540078e-34
7.566488374e-35
7.123472221e-37
-9.540722115e-35
-3.292636999e-34
3.696112039e-35
-1.06019543e-34
2.818084833e-34
4.51042408e-36
1.039240035e-37
2.404865676e-37
1.40899541e-34
2.33827874e-36
-1.489397441e-34
-6.050259409e-35
1.760108534e-34
-4.396365575e-35
1.412854358e-34
1.961953283e-36
-6.309400029e-35
4.589873365e-36
-7.817791072e-36
-2.656845131e-36
-4.56661785e-35
-7.629858157e-36
-2.081243048e-34
-2.129637607e-34
-9.818417707e-35
5.327939931e-35
-1.696050306e-35
5.756456764e-35
4.596018957e-37
-3.29118616e-36
-4.034113619e-34
-4.220033533e-34
-2.903514715e-34
-2.219236651e-36
4.247220845e-34
-5.723341357e-35
-5.39311916e-35
-2.418201593e-34
-7.22313284e-35
-3.67944772e-36
-3.656458142e-34
-4.466807317e-36
-3.694943264e-37
-8.448972452e-35
-1.4429671e-34
7.920369132e-36
-1.506587814e-34
7.598495213e-35
-2.209226264e-34
1.811908178e-36
2.846616796e-34
2.861273551e-34
2.310961233e-35
-4.104443729e-36
-1.956990312e-35
7.185681887e-35
2.148312659e-34
3.567658385e-34
-6.432287156e-34
1.838107559e-36
7.577572666e-36
-7.532088528e-35
2.273064531e-36
-1.701484255e-38
8.239976346e-37
-7.888476974e-34
-6.396647791e-37
6.907940856e-35
-7.051101435e-35
7.191851395e-35
-7.201832304e-35
-4.228673087e-37
-1.456338136e-36
-6.969604656e-35
8.184830375e-36
-2.785779844e-38
-2.524137198e-34
-7.285958357e-35
-4.119826992e-35
4.979291136e-34
-1.974832904e-34
-1.438115257e-34
-2.614825823e-34
6.404056394e-34
7.697396128e-35
7.711763086e-36
-1.799769854e-34
-5.967454038e-35
4.954829616e-34
-3.982452301e-35
3.562020531e-34
5.024949583e-34
-3.582951068e-34
2.15893308e-34
-9.282804592e-37
-5.461170705e-35
-6.881943847e-34
-6.227648576e-36
-3.698366181e-34
-2.235805779e-35
-9.729813338e-35
-2.434308903e-38
3.54126515e-34
4.205193801e-36
-8.783536517e-36
1.963444288e-36
2.138664767e-34
-4.435570408e-35
-5.696482244e-35
7.043123155e-35
2.350234489e-37
-3.379054685e-37
-7.145274313e-35
1.91910087e-36
3.578597851e-35
1.072496983e-34
8.417513214e-37
1.248635038e-34
7.225186026e-35
3.594967215e-35
3.771331146e-37
-3.481068652e-35
-5.012504156e-37
3.892874589e-36
-5.538398339e-35
1.456448435e-35
6.151597606e-36
-9.008251059e-35
5.39315506e-35
1.788988797e-34
-1.202061609e-34
7.072003036e-35
7.219324435e-35
-1.779765669e-34
-3.176357413e-36
-1.086475232e-34
-4.273753635e-34
-6.901690269e-36
1.448956096e-35
-1.994541834e-35
-2.782922119e-34
-7.543139084e-37
-7.284398248e-35
7.219964e-35
-2.698637034e-34
-4.033798349e-38
1.368770768e-37
7.119043e-35
)
;

boundaryField
{
    inlet
    {
        type            calculated;
        value           uniform 0;
    }
    outlet
    {
        type            calculated;
        value           uniform 7.119043094e-35;
    }
    wall
    {
        type            empty;
    }
}


// ************************************************************************* //
