/*--------------------------------*- C++ -*----------------------------------*\
  =========                 |
  \\      /  F ield         | OpenFOAM: The Open Source CFD Toolbox
   \\    /   O peration     | Website:  https://openfoam.org
    \\  /    A nd           | Version:  7
     \\/     M anipulation  |
\*---------------------------------------------------------------------------*/
FoamFile
{
    version     2.0;
    format      ascii;
    class       volScalarField;
    location    "0.000558243009";
    object      ddt0(rho,PC4H9);
}
// * * * * * * * * * * * * * * * * * * * * * * * * * * * * * * * * * * * * * //

dimensions      [1 -3 -1 0 0 0 0];

internalField   nonuniform List<scalar> 
1500
(
-2.787741495e-13
-8.431991856e-13
-1.272003173e-12
-1.291039703e-12
-9.918647436e-13
-6.147325691e-13
-3.198263935e-13
-1.4366859e-13
-5.721101795e-14
-2.127664945e-14
-8.669908378e-15
-5.296043229e-15
-5.076466433e-15
-5.749724846e-15
-6.553132174e-15
-7.251542994e-15
-7.775264497e-15
-8.104305665e-15
-8.234883105e-15
-8.169902312e-15
-7.916373278e-15
-7.484562143e-15
-6.887523628e-15
-6.14070955e-15
-5.261589299e-15
-4.269286281e-15
-3.184246706e-15
-2.027953946e-15
-8.226904187e-16
4.086633651e-16
1.642813479e-15
2.856248617e-15
4.02547588e-15
5.127320902e-15
6.13930531e-15
7.040104258e-15
7.81007394e-15
8.431819129e-15
8.890771471e-15
9.175734382e-15
9.27935057e-15
9.198451712e-15
8.934257465e-15
8.492402325e-15
7.882782965e-15
7.119232671e-15
6.219042887e-15
5.202362892e-15
4.091515696e-15
2.910271325e-15
1.683118254e-15
4.345684847e-16
-8.114752339e-16
-2.032269932e-15
-3.206689849e-15
-4.315588602e-15
-5.342069618e-15
-6.271673431e-15
-7.092492225e-15
-7.795222112e-15
-8.373161759e-15
-8.822163434e-15
-9.140540593e-15
-9.328932522e-15
-9.390127065e-15
-9.328841052e-15
-9.151461042e-15
-8.865748981e-15
-8.480521188e-15
-8.005312851e-15
-7.450043006e-15
-6.824696923e-15
-6.139043035e-15
-5.402400219e-15
-4.623468094e-15
-3.810227581e-15
-2.969914608e-15
-2.109062709e-15
-1.233605389e-15
-3.49024804e-16
5.39470741e-16
1.426758385e-15
2.307619894e-15
3.176584994e-15
4.027812032e-15
4.855015814e-15
5.651447837e-15
6.409930433e-15
7.12294212e-15
7.782748259e-15
8.381568592e-15
8.911771582e-15
9.366084368e-15
9.737806641e-15
1.00210177e-14
1.021076538e-14
1.030322848e-14
1.029584429e-14
1.018739608e-14
9.978056891e-15
9.669388663e-15
9.264298682e-15
8.766957049e-15
8.182681729e-15
7.517799114e-15
6.779489071e-15
5.975624066e-15
5.114610999e-15
4.20524327e-15
3.256568763e-15
2.277776948e-15
1.278105366e-15
2.667643015e-16
-7.471248703e-16
-1.754582248e-15
-2.746818911e-15
-3.715288574e-15
-4.651745858e-15
-5.548313779e-15
-6.397560866e-15
-7.192586512e-15
-7.927110622e-15
-8.595563161e-15
-9.19316736e-15
-9.716010798e-15
-1.016109919e-14
-1.052638924e-14
-1.081079825e-14
-1.101419073e-14
-1.113734401e-14
-1.118189627e-14
-1.115028217e-14
-1.104566141e-14
-1.087184543e-14
-1.063322668e-14
-1.033471373e-14
-9.981672947e-15
-9.579876541e-15
-9.135453766e-15
-8.654841522e-15
-8.14472857e-15
-7.611987967e-15
-7.06359252e-15
-6.506508688e-15
-5.947567647e-15
-5.393313377e-15
-4.849831335e-15
-4.322563903e-15
-3.816122168e-15
-3.334104766e-15
-2.878937144e-15
-2.451744396e-15
-2.052270936e-15
-1.678857189e-15
-1.328482635e-15
-9.968782484e-16
-6.787096787e-16
-3.678244285e-16
-5.755470224e-17
2.589402365e-16
5.883092778e-16
9.366443239e-16
1.309136768e-15
1.709778062e-15
2.141124182e-15
2.604141867e-15
3.098147073e-15
3.620842109e-15
4.16844977e-15
4.73593578e-15
5.317304115e-15
5.905943501e-15
6.494998707e-15
7.077738635e-15
7.647892135e-15
8.199924694e-15
8.72923563e-15
9.232260409e-15
9.706472875e-15
1.015029044e-14
1.056289564e-14
1.094399439e-14
1.129353794e-14
1.161143899e-14
1.189731179e-14
1.215026392e-14
1.236876156e-14
1.25505803e-14
1.269284775e-14
1.279217155e-14
1.284484116e-14
1.2847084e-14
1.279535374e-14
1.268662731e-14
1.251868949e-14
1.229038546e-14
1.200182685e-14
1.165454036e-14
1.12515503e-14
1.079738672e-14
1.029801455e-14
9.760673778e-15
9.193625307e-15
8.605798173e-15
8.006337801e-15
7.404069423e-15
6.806899502e-15
6.221201126e-15
5.651243523e-15
5.098744653e-15
4.562635113e-15
4.039120573e-15
3.522114064e-15
3.004080592e-15
2.477285477e-15
1.935376141e-15
1.375158776e-15
7.98360276e-16
2.131057934e-16
-3.651896487e-16
-9.138203622e-16
-1.403940163e-15
-1.803033322e-15
-2.078734814e-15
-2.203848757e-15
-2.162208943e-15
-1.954814954e-15
-1.605490726e-15
-1.165179354e-15
-7.139345749e-16
-3.597243555e-16
-2.333370499e-16
-4.789898269e-16
-1.240656384e-15
-2.644651388e-15
-4.779574368e-15
-7.67527833e-15
-1.128302847e-14
-1.545937644e-14
-1.995644383e-14
-2.442122435e-14
-2.840620797e-14
-3.139310498e-14
-3.283126825e-14
-3.219206963e-14
-2.904362187e-14
-2.314389349e-14
-1.455669073e-14
-3.667246556e-15
9.071316166e-15
1.700656389e-14
1.798011686e-14
1.887256658e-14
1.97480551e-14
2.061996079e-14
2.148982274e-14
2.235560788e-14
2.32157098e-14
2.406876196e-14
2.491386149e-14
2.575027666e-14
2.657724175e-14
2.739399765e-14
2.819963956e-14
2.899323837e-14
2.977386149e-14
3.05404878e-14
3.129208141e-14
3.202756898e-14
3.274586687e-14
3.344583277e-14
3.412624117e-14
3.47858897e-14
3.542348652e-14
3.60377555e-14
3.66272362e-14
3.71905494e-14
3.772617313e-14
3.823260889e-14
3.870818038e-14
3.915125713e-14
3.956005042e-14
3.993274989e-14
4.02674628e-14
4.056214927e-14
4.081475838e-14
4.102312002e-14
4.118492104e-14
4.129779266e-14
4.135924309e-14
4.136663571e-14
4.131721307e-14
4.120806996e-14
4.103619937e-14
4.079837567e-14
4.049122402e-14
4.011123234e-14
3.965464892e-14
3.911751354e-14
3.849570258e-14
3.778480117e-14
3.698018917e-14
3.607693396e-14
3.506988225e-14
3.395353735e-14
3.27220848e-14
3.136935892e-14
2.98888302e-14
2.827359291e-14
2.65163158e-14
2.460917635e-14
2.254394245e-14
2.03118004e-14
1.790345287e-14
1.530896358e-14
1.251784665e-14
9.518884359e-15
6.300178382e-15
2.849112906e-15
-8.47796306e-16
-4.804820392e-15
-9.03716421e-15
-1.356096338e-14
-1.839345233e-14
-2.355284575e-14
-2.905862303e-14
-3.49313797e-14
-4.119308074e-14
-4.786702017e-14
-5.497798609e-14
-6.255227579e-14
-7.061781662e-14
-7.920430159e-14
-8.834312391e-14
-9.806774384e-14
-1.084135124e-13
-1.194180082e-13
-1.311209914e-13
-1.435645628e-13
-1.56793361e-13
-1.708545926e-13
-1.85798183e-13
-2.016769481e-13
-2.185466739e-13
-2.364662887e-13
-2.554980248e-13
-2.75707479e-13
-2.971638713e-13
-3.199401157e-13
-3.441130149e-13
-3.697634049e-13
-3.969762647e-13
-4.258410058e-13
-4.564514334e-13
-4.88906115e-13
-5.233084067e-13
-5.597665941e-13
-5.983941752e-13
-6.393099215e-13
-6.826380372e-13
-7.285083441e-13
-7.77056411e-13
-8.284236577e-13
-8.827575799e-13
-9.402117868e-13
-1.000946199e-12
-1.065127063e-12
-1.132927251e-12
-1.204526087e-12
-1.280109662e-12
-1.359870783e-12
-1.444009098e-12
-1.532731101e-12
-1.626250172e-12
-1.724786647e-12
-1.828567674e-12
-1.937827406e-12
-2.052806746e-12
-2.173753478e-12
-2.30092203e-12
-2.434573464e-12
-2.574975347e-12
-2.722401563e-12
-2.877132218e-12
-3.039453311e-12
-3.20965659e-12
-3.388039373e-12
-3.574904111e-12
-3.770558191e-12
-3.975313624e-12
-4.189486519e-12
-4.413396873e-12
-4.647368029e-12
-4.891726344e-12
-5.146800523e-12
-5.412921322e-12
-5.690420791e-12
-5.979631908e-12
-6.280887892e-12
-6.59452153e-12
-6.920864638e-12
-7.260247273e-12
-7.612997193e-12
-7.97943895e-12
-8.359893325e-12
-8.754676429e-12
-9.164099008e-12
-9.588465683e-12
-1.002807401e-11
-1.048321382e-11
-1.09541663e-11
-1.144120316e-11
-1.194458594e-11
-1.246456487e-11
-1.300137839e-11
-1.355525217e-11
-1.412639813e-11
-1.471501394e-11
-1.532128199e-11
-1.594536871e-11
-1.658742386e-11
-1.724757959e-11
-1.792595008e-11
-1.862263057e-11
-1.933769682e-11
-2.007120457e-11
-2.082318898e-11
-2.159366399e-11
-2.238262201e-11
-2.319003354e-11
-2.401584658e-11
-2.48599866e-11
-2.572235623e-11
-2.660283503e-11
-2.750127938e-11
-2.841752267e-11
-2.935137501e-11
-3.030262371e-11
-3.127103316e-11
-3.225634535e-11
-3.32582802e-11
-3.427653583e-11
-3.531078939e-11
-3.636069737e-11
-3.742589663e-11
-3.850600507e-11
-3.960062243e-11
-4.070933147e-11
-4.1831699e-11
-4.296727704e-11
-4.411560409e-11
-4.527620665e-11
-4.644860039e-11
-4.763229238e-11
-4.882678178e-11
-5.003156253e-11
-5.124612489e-11
-5.246995718e-11
-5.370254817e-11
-5.494338933e-11
-5.61919765e-11
-5.744781329e-11
-5.871041232e-11
-5.997929897e-11
-6.125401311e-11
-6.253411231e-11
-6.381917508e-11
-6.510880301e-11
-6.640262441e-11
-6.770029722e-11
-6.900151265e-11
-7.030599831e-11
-7.16135215e-11
-7.292389319e-11
-7.423697157e-11
-7.555266586e-11
-7.687094002e-11
-7.819181726e-11
-7.951538395e-11
-8.084179333e-11
-8.217127095e-11
-8.350411865e-11
-8.484071878e-11
-8.618153982e-11
-8.752714022e-11
-8.88781744e-11
-9.023539725e-11
-9.159966963e-11
-9.297196394e-11
-9.435336927e-11
-9.574509716e-11
-9.714848781e-11
-9.856501582e-11
-9.999629603e-11
-1.014440901e-10
-1.029103133e-10
-1.043970401e-10
-1.059065112e-10
-1.074411417e-10
-1.090035256e-10
-1.105964452e-10
-1.122228778e-10
-1.138860024e-10
-1.155892078e-10
-1.173361011e-10
-1.191305149e-10
-1.209765146e-10
-1.228784087e-10
-1.248407541e-10
-1.268683638e-10
-1.289663128e-10
-1.311399015e-10
-1.33395123e-10
-1.357206346e-10
-1.381415186e-10
-1.406772237e-10
-1.433565904e-10
-1.461407339e-10
-1.490366959e-10
-1.520523729e-10
-1.551959932e-10
-1.584762158e-10
-1.619021237e-10
-1.654832427e-10
-1.692295611e-10
-1.731515438e-10
-1.772600678e-10
-1.815713951e-10
-1.861688367e-10
-1.909983913e-10
-1.960720538e-10
-2.014034806e-10
-2.069886303e-10
-2.12845184e-10
-2.190003604e-10
-2.254693381e-10
-2.322677717e-10
-2.394120005e-10
-2.469189892e-10
-2.5480633e-10
-2.630922658e-10
-2.71795709e-10
-2.809362634e-10
-2.905342555e-10
-3.006107527e-10
-3.111875963e-10
-3.222874301e-10
-3.339337281e-10
-3.461508292e-10
-3.589639735e-10
-3.723993356e-10
-3.864840692e-10
-4.012463434e-10
-4.167153954e-10
-4.329215709e-10
-4.498963827e-10
-4.676725613e-10
-4.862841157e-10
-5.057663984e-10
-5.2615617e-10
-5.474916772e-10
-5.698127276e-10
-5.931607783e-10
-6.175790246e-10
-6.431125076e-10
-6.698082169e-10
-6.977152187e-10
-7.268847869e-10
-7.573705529e-10
-7.892286805e-10
-8.225180475e-10
-8.573004765e-10
-8.936409816e-10
-9.316080731e-10
-9.712740974e-10
-1.012715669e-09
-1.056014164e-09
-1.101256333e-09
-1.148535046e-09
-1.197950212e-09
-1.249609912e-09
-1.303631818e-09
-1.360144955e-09
-1.419291925e-09
-1.481231701e-09
-1.546143153e-09
-1.614229515e-09
-1.685724046e-09
-1.760897206e-09
-1.8400658e-09
-1.923604565e-09
-2.011960974e-09
-2.105674035e-09
-2.205398274e-09
-2.311934288e-09
-2.426267682e-09
-2.549618707e-09
-2.683505542e-09
-2.829824961e-09
-2.990955182e-09
-3.169886956e-09
-3.370390674e-09
-3.597229353e-09
-3.856430039e-09
-4.155629661e-09
-4.504515653e-09
-4.915387232e-09
-5.403870265e-09
-5.989827605e-09
-6.698518118e-09
-7.562072017e-09
-8.621368654e-09
-9.928425753e-09
-1.154943906e-08
-1.356864838e-08
-1.60932538e-08
-1.925966554e-08
-2.324144766e-08
-2.825941187e-08
-3.459443979e-08
-4.260376701e-08
-5.274165712e-08
-6.558564081e-08
-8.186980776e-08
-1.025270308e-07
-1.28742501e-07
-1.620215735e-07
-2.042757168e-07
-2.57931341e-07
-3.260675331e-07
-4.125902791e-07
-5.224527125e-07
-6.619333759e-07
-8.389875317e-07
-1.063690362e-06
-1.348795643e-06
-1.710439339e-06
-2.169024798e-06
-2.750335264e-06
-3.486930281e-06
-4.419896158e-06
-5.601036891e-06
-7.095611831e-06
-8.985750152e-06
-1.137470045e-05
-1.439210741e-05
-1.820054652e-05
-2.300359255e-05
-2.905574867e-05
-3.66746184e-05
-4.625576313e-05
-5.829074759e-05
-7.338893457e-05
-9.230363601e-05
-0.000115963257
-0.0001455080603
-0.0001823331205
-0.000228137963
-0.0002849827177
-0.0003553514107
-0.0004422205271
-0.0005491319572
-0.0006802672732
-0.0008405188912
-0.001035553289
-0.001271855057
-0.001556744583
-0.001898353247
-0.002305540882
-0.002787736803
-0.003354684444
-0.004016069586
-0.004781014256
-0.005657423134
-0.006651177192
-0.007765180691
-0.008998282988
-0.01034411282
-0.01178988681
-0.01331526664
-0.01489135496
-0.01647990888
-0.01803280216
-0.01949169591
-0.02078768083
-0.02184058307
-0.0225574301
-0.02282953402
-0.0225282188
-0.0214985617
-0.0195526202
-0.01646170065
-0.01194854841
-0.005679324424
0.002741458328
0.01376721336
0.02791087491
0.04731933349
0.07383946288
0.1252165509
0.2051706513
0.3187605998
0.3708785769
0.5144107305
0.5638196053
0.8140185999
2.739185227
9.292700103
21.27120912
30.49641159
27.21706358
16.42340341
7.919186139
3.472298002
2.22647384
1.629734421
1.715912741
1.99717106
2.41987218
2.413237343
2.138658205
1.653861981
1.296832258
0.7924546645
0.3571851713
0.0157128284
-0.2185254824
-0.3265605193
-0.3544882847
-0.3225503253
-0.2757306548
-0.2206849447
-0.1707118812
-0.128412911
-0.09476385643
-0.06904358064
-0.04992452166
-0.03577127549
-0.02521874416
-0.01769907854
-0.0123740844
-0.008619101504
-0.005995799518
-0.004166715535
-0.002904449236
-0.002032535037
-0.001422949353
-0.0009855037921
-0.0006809403728
-0.0004726179043
-0.0003270390292
-0.0002256930002
-0.0001553905656
-0.0001067691834
-7.322699643e-05
-5.011898662e-05
-3.42511154e-05
-2.33660907e-05
-1.591139182e-05
-1.081390557e-05
-7.33401161e-06
-4.962595629e-06
-3.349645852e-06
-2.2548377e-06
-1.513381328e-06
-1.012444638e-06
-6.748863675e-07
-4.480561646e-07
-2.960802703e-07
-1.946326997e-07
-1.271912148e-07
-8.255942233e-08
-5.317184203e-08
-3.393177638e-08
-2.141689568e-08
-1.33373012e-08
-8.166730151e-09
-4.892228167e-09
-2.844695649e-09
-1.584508979e-09
-8.245558564e-10
-3.786196596e-10
-1.268901925e-10
6.989463983e-12
7.113083125e-11
9.542623659e-11
9.812189725e-11
9.009971173e-11
7.764596985e-11
6.422627267e-11
5.161173483e-11
4.058470747e-11
3.137419838e-11
2.391921871e-11
1.802387293e-11
1.344532599e-11
9.941021245e-12
7.29136394e-12
5.308684715e-12
3.838577885e-12
2.757407871e-12
1.968190758e-12
1.396075371e-12
9.840560716e-13
6.892025121e-13
4.794985457e-13
3.312701343e-13
2.27145929e-13
1.544696683e-13
1.040814777e-13
6.93937289e-14
4.569753578e-14
2.964704248e-14
1.887901996e-14
1.173432765e-14
7.055344466e-15
4.039587116e-15
2.134573507e-15
9.627544331e-16
2.682246759e-16
-1.208865971e-16
-3.188039882e-16
-4.00509184e-16
-4.144948264e-16
-3.915442689e-16
-3.507320651e-16
-3.034926319e-16
-2.563546934e-16
-2.127605562e-16
-1.742622913e-16
-1.412971441e-16
-1.136815166e-16
-9.091860504e-17
-7.23842842e-17
-5.743462928e-17
-4.546395916e-17
-3.593241036e-17
-2.837539186e-17
-2.240280582e-17
-1.76929604e-17
-1.398417035e-17
-1.106579171e-17
-8.769652139e-18
-6.962344061e-18
-5.538562681e-18
-4.415500239e-18
-3.528221607e-18
-2.825904483e-18
-2.268819555e-18
-1.825925219e-18
-1.472966852e-18
-1.190981912e-18
-9.65129941e-19
-7.837797317e-19
-6.377992928e-19
-5.200038526e-19
-4.247277817e-19
-3.474919784e-19
-2.847461469e-19
-2.336685416e-19
-1.920102441e-19
-1.579738653e-19
-1.301189415e-19
-1.072879199e-19
-8.854825829e-20
-7.314673617e-20
-6.047352114e-20
-5.003379562e-20
-4.142521078e-20
-3.431995483e-20
-2.845046607e-20
-2.359797652e-20
-1.958333339e-20
-1.625962966e-20
-1.350622289e-20
-1.122393002e-20
-9.331111418e-21
-7.760502093e-21
-6.456634427e-21
-5.373720283e-21
-4.473935684e-21
-3.726008984e-21
-3.104075301e-21
-2.586725833e-21
-2.156223047e-21
-1.797868662e-21
-1.499476053e-21
-1.250938141e-21
-1.043861953e-21
-8.712828249e-22
-7.274135304e-22
-6.074475238e-22
-5.073858783e-22
-4.239055982e-22
-3.542410318e-22
-2.960913092e-22
-2.475426197e-22
-2.070001125e-22
-1.731355114e-22
-1.448422752e-22
-1.21198808e-22
-1.014364048e-22
-8.491482079e-23
-7.109919425e-23
-5.954395636e-23
-4.98774825e-23
-4.178931768e-23
-3.501997044e-23
-2.935312233e-23
-2.460847964e-23
-2.063515849e-23
-1.730703892e-23
-1.451873425e-23
-1.218221851e-23
-1.022395134e-23
-8.582295789e-24
-7.205660798e-24
-6.051156987e-24
-5.082704837e-24
-4.270154515e-24
-3.588223385e-24
-3.01578329e-24
-2.535219968e-24
-2.131683747e-24
-1.792706332e-24
-1.507966433e-24
-1.268684681e-24
-1.067551127e-24
-8.985035544e-25
-7.564046617e-25
-6.369069413e-25
-5.363811226e-25
-4.518030157e-25
-3.806345748e-25
-3.20730625e-25
-2.703104291e-25
-2.278461529e-25
-1.920890528e-25
-1.619608488e-25
-1.365947833e-25
-1.152189354e-25
-9.720590008e-26
-8.204423234e-26
-6.927175821e-26
-5.848689534e-26
-4.940487179e-26
-4.174615991e-26
-3.52752799e-26
-2.982603003e-26
-2.522155519e-26
-2.13242758e-26
-1.80313126e-26
-1.524854989e-26
-1.290996788e-26
-1.093733632e-26
-9.263961261e-27
-7.853093854e-27
-6.667836969e-27
-5.670665635e-27
-4.817831885e-27
-4.089968827e-27
-3.483806527e-27
-2.976091781e-27
-2.546047351e-27
-2.182196872e-27
-1.873030003e-27
-1.602313339e-27
-1.374364996e-27
-1.185293154e-27
-1.025201263e-27
-8.894441705e-28
-7.706987105e-28
-6.708839307e-28
-5.83668558e-28
-5.0587545e-28
-4.385835086e-28
-3.84031532e-28
-3.382967789e-28
-2.999565476e-28
-2.638279039e-28
-2.35372515e-28
-2.099709445e-28
-1.936487203e-28
-1.765965086e-28
-1.589124647e-28
-1.423648866e-28
-1.283282011e-28
-1.172147601e-28
-1.046521557e-28
-9.404435334e-29
-8.591578797e-29
-7.853973958e-29
-7.276551721e-29
-6.718318031e-29
-6.166942777e-29
-5.555092436e-29
-5.173557487e-29
-4.882506953e-29
-4.736301446e-29
-4.440305578e-29
-4.161476676e-29
-3.99371619e-29
-3.856140192e-29
-3.63239941e-29
-3.435311895e-29
-3.181706379e-29
-3.093324501e-29
-3.11334088e-29
-3.018469878e-29
-2.909699643e-29
-2.771024612e-29
-2.621610481e-29
-2.457531027e-29
-2.305994692e-29
-2.21160039e-29
-2.156933422e-29
-1.993223791e-29
-1.893633964e-29
-1.755768963e-29
-1.655810369e-29
-1.581052062e-29
-1.41394509e-29
-1.274084079e-29
-1.155560521e-29
-1.091242322e-29
-1.065871736e-29
-1.059870945e-29
-1.078421438e-29
-1.077663738e-29
-1.019471776e-29
-9.490776396e-30
-9.410588888e-30
-9.117145529e-30
-9.184655912e-30
-8.937018651e-30
-7.920990272e-30
-7.424647126e-30
-7.030576816e-30
-6.987417324e-30
-6.300042688e-30
-5.58706099e-30
-4.851086601e-30
-4.909003176e-30
-5.17826184e-30
-4.975780279e-30
-4.850437628e-30
-4.780920028e-30
-4.230406409e-30
-4.265303396e-30
-3.847526793e-30
-3.472602437e-30
-3.383601769e-30
-3.105762897e-30
-3.057603569e-30
-3.009998994e-30
-2.666051647e-30
-2.253369776e-30
-2.421675467e-30
-2.419510942e-30
-2.173706675e-30
-2.256057907e-30
-2.304138369e-30
-2.344110908e-30
-2.390191228e-30
-2.27229698e-30
-2.313919599e-30
-2.286874149e-30
-1.766204428e-30
-1.513935372e-30
-1.410411547e-30
-9.677036414e-31
-1.159939071e-30
-1.114950099e-30
-1.302603975e-30
-1.432095822e-30
-1.454758851e-30
-1.365484207e-30
-1.164423328e-30
-1.15932122e-30
-1.067277422e-30
-1.042386538e-30
-1.022518125e-30
-1.113153301e-30
-1.078793741e-30
-1.13771094e-30
-9.64113914e-31
-9.613968889e-31
-9.003879806e-31
-7.488398473e-31
-6.10094645e-31
-6.053362483e-31
-5.362703304e-31
-4.36564418e-31
-2.705065047e-31
-2.352686928e-31
-2.14823793e-31
-2.407584962e-31
-3.158320288e-31
-3.900914826e-31
-3.3682542e-31
-1.744306479e-31
-7.596994964e-32
-1.327585049e-31
-2.165653943e-31
-2.080737093e-31
-1.996571685e-31
-1.727980685e-31
-1.233945412e-31
-1.116156614e-31
-2.506699661e-31
-1.890885634e-31
-2.51124539e-31
-3.148460751e-31
-3.258724144e-31
-2.672724338e-31
-2.391092574e-31
-2.155335446e-31
-1.464444748e-31
-1.152282346e-31
-1.393551211e-31
-1.245911932e-31
-5.890355923e-32
1.155025593e-31
2.059726009e-31
1.578178844e-31
1.19484457e-31
1.651946135e-31
1.48630303e-31
2.17075132e-31
3.77437969e-31
4.961323215e-31
5.234684675e-31
4.004165042e-31
2.955360973e-31
3.174045443e-31
3.827135888e-31
3.866126036e-31
4.468265182e-31
4.206682978e-31
3.673897552e-31
2.599419704e-31
1.216138099e-31
7.023757e-32
1.56429524e-31
2.655806595e-31
2.383858966e-31
2.129517776e-31
1.390800006e-31
1.026904921e-31
-1.391647747e-32
-4.505908794e-32
-8.618133566e-32
1.361175371e-32
5.588432678e-33
1.734392193e-32
2.256264804e-32
4.957069721e-33
5.392179308e-32
1.292618725e-31
1.348406758e-31
1.433411368e-31
1.58257798e-31
2.037555157e-31
2.290293651e-31
1.941195177e-31
1.847995599e-31
2.614969767e-31
2.934690989e-31
3.42217414e-31
3.147999902e-31
2.558837125e-31
1.716573878e-31
1.192682255e-31
2.490433092e-32
6.672413337e-32
7.005608064e-32
1.039121905e-31
1.366816386e-31
1.814998683e-31
2.24351164e-31
1.897461279e-31
1.390119102e-31
1.031049361e-31
1.304647617e-31
1.842935167e-31
2.036592452e-31
1.98684707e-31
2.070749569e-31
2.102279918e-31
2.157839114e-31
2.119411892e-31
1.841946181e-31
1.693638058e-31
1.435853665e-31
1.322186232e-31
1.167308383e-31
1.583281239e-31
1.81224542e-31
1.89889433e-31
1.949991709e-31
1.918378595e-31
1.091231813e-31
1.155480535e-31
1.64985178e-31
2.321774195e-31
2.789795625e-31
2.690150214e-31
2.245440047e-31
1.803663417e-31
1.419351261e-31
1.173860972e-31
1.045991088e-31
9.77175104e-32
6.171139573e-32
3.786517634e-32
-8.150703899e-34
-2.330979463e-32
-2.11983395e-32
-1.520398766e-32
-2.193985753e-32
-2.649257384e-32
4.948914379e-32
1.241704989e-31
1.138504021e-31
1.224318035e-31
9.088579811e-32
9.099053914e-32
9.814307938e-32
1.316736318e-31
1.363087175e-31
1.230517189e-31
1.324476211e-31
1.088698962e-31
1.104392677e-31
1.594443915e-31
1.219098304e-31
1.357894753e-31
1.512112642e-31
1.320545485e-31
1.190176326e-31
1.449238303e-31
1.146931163e-31
1.243225914e-31
1.588130581e-31
8.130083884e-32
1.066457716e-31
1.06965089e-31
1.000515559e-31
7.172406458e-32
5.456123465e-32
3.762018627e-31
-5.755087685e-32
-1.061188109e-31
2.087652352e-31
-4.823438124e-32
-2.31653991e-32
1.95901102e-31
-1.226995518e-31
-1.102592168e-31
-9.403836914e-32
-8.713170561e-32
2.626154456e-33
3.173850225e-32
-2.12226938e-32
5.797825422e-33
-2.385274251e-32
3.605310743e-32
-1.134280366e-33
-5.97828755e-33
-5.819621097e-33
9.243214894e-33
-1.666407083e-33
1.315989315e-32
-2.567127431e-33
-2.012459987e-34
-5.880908605e-34
1.480340182e-34
1.963292359e-34
2.174895441e-34
-2.5073077e-35
-3.303784535e-33
1.518733586e-33
6.364674066e-34
-1.239105344e-35
2.779796099e-34
9.380670831e-36
-2.643604198e-34
-1.712188113e-34
-1.166668145e-34
-2.907079108e-34
-9.796562489e-34
-1.261267808e-33
-8.512425641e-34
-3.752943265e-34
-7.765163775e-35
-7.434403614e-33
-2.162600167e-34
-3.657761846e-33
-1.594328906e-34
1.322157708e-35
1.97313433e-33
1.91382504e-34
-2.951221558e-35
-1.503498794e-33
6.832669523e-34
3.925335527e-34
-1.286087972e-33
3.279285435e-35
2.043679114e-33
1.569244339e-34
-9.464418472e-35
2.401168738e-34
1.227942429e-33
-1.085688808e-33
-3.256094278e-35
3.806574617e-34
9.11084487e-35
-8.982594061e-36
-3.067513047e-34
-2.125554355e-34
-9.283898233e-34
-6.969810598e-34
7.536290352e-34
-1.638676039e-35
5.035388875e-34
-4.3272696e-34
6.474042406e-34
-7.435394702e-34
-5.360477122e-34
3.82384204e-34
4.619855222e-34
-8.223971008e-34
7.922746747e-34
2.244489365e-35
-1.719170634e-34
2.73506085e-34
1.573484923e-34
3.013072175e-36
1.413811942e-36
1.95238009e-34
-1.39709735e-34
1.919935101e-34
7.994847313e-35
1.256389118e-34
-6.146629107e-35
5.74237316e-37
2.639405282e-35
-1.403566817e-35
3.089590153e-36
1.229841902e-37
1.012325987e-35
1.364837469e-35
1.121356021e-35
-3.056303272e-35
-4.492341396e-35
-5.097229926e-36
-1.704258649e-35
-1.663652056e-35
2.400506418e-35
3.021974142e-37
1.634963822e-37
-1.658363363e-35
2.263150639e-36
1.573872831e-35
2.619478657e-35
-8.77971036e-36
2.491096067e-35
-6.664043518e-36
-2.055789853e-37
2.149507179e-35
7.296418305e-36
1.402328174e-36
-1.822392119e-36
1.349389322e-36
5.542862256e-36
-2.240254522e-35
-7.0054491e-36
-5.918062292e-36
1.870236011e-36
-7.372332069e-36
-9.124137373e-36
-2.094948366e-35
-6.570299587e-36
1.918911011e-35
9.780777216e-36
-2.032395206e-36
-4.754230837e-36
-6.632542568e-36
-3.591538792e-36
-3.490086148e-35
-6.445932597e-35
-5.799861859e-36
-6.606312747e-36
-1.919880521e-36
7.298729791e-36
1.407516352e-37
-2.076811935e-35
-5.609397715e-35
-9.050714384e-37
-1.369877779e-35
-3.090068845e-36
-1.094691568e-36
-1.904162464e-35
8.54223925e-35
6.745168264e-37
-1.361772485e-35
-8.969528254e-36
8.742521651e-35
-1.188864728e-35
-7.487209259e-36
-4.189739519e-36
1.367752495e-36
-6.609814378e-36
-2.009358584e-35
4.915291622e-35
-1.814639278e-35
1.128375161e-34
-3.71035055e-36
-4.280959922e-35
-2.70403251e-35
1.617671295e-35
-3.747268107e-35
5.635243239e-36
-4.139394913e-35
1.895325913e-35
9.229634269e-37
-7.820082026e-36
-1.760101802e-35
-2.209702762e-35
-4.417646371e-38
3.731227473e-37
2.409066586e-35
4.387982444e-36
-2.310359737e-36
-3.961490159e-35
-5.282851067e-36
-1.650286584e-37
5.143578524e-35
2.967270496e-36
2.701836533e-35
8.119729094e-36
1.704484981e-35
3.036187672e-35
2.277563187e-37
-7.18730227e-39
-1.707927258e-36
-4.311029537e-36
-1.111618057e-38
-2.476601795e-36
3.964849812e-35
8.796555587e-36
-1.468653772e-35
-2.703560608e-35
-2.312509427e-36
2.027909575e-35
5.484538283e-35
4.20218943e-37
7.860904715e-36
5.441492273e-36
-2.437049974e-36
9.400425384e-38
-3.111863548e-36
-5.079966856e-36
-1.544047054e-35
2.183290875e-38
1.873498428e-38
1.542548603e-35
-1.870006938e-36
7.002488681e-39
2.221736956e-37
9.653604368e-37
9.719076245e-38
-3.716020103e-36
-2.449338072e-38
5.707847477e-39
1.236235765e-36
-6.988887422e-36
-1.983277355e-35
7.579269731e-36
5.215271792e-36
1.783817897e-35
1.092001673e-37
3.039848569e-39
-1.398407506e-36
8.979696019e-36
7.402328695e-38
2.715608317e-35
3.069016463e-35
2.798070306e-35
2.388406872e-37
1.340158184e-36
-1.426298763e-35
3.536136976e-35
-3.14778403e-35
1.50360243e-35
-4.818758687e-35
-2.044548093e-36
-4.877186638e-36
-5.114002454e-35
-2.7877171e-36
)
;

boundaryField
{
    inlet
    {
        type            calculated;
        value           uniform 0;
    }
    outlet
    {
        type            calculated;
        value           uniform -2.787716929e-36;
    }
    wall
    {
        type            empty;
    }
}


// ************************************************************************* //
