/*--------------------------------*- C++ -*----------------------------------*\
  =========                 |
  \\      /  F ield         | OpenFOAM: The Open Source CFD Toolbox
   \\    /   O peration     | Website:  https://openfoam.org
    \\  /    A nd           | Version:  7
     \\/     M anipulation  |
\*---------------------------------------------------------------------------*/
FoamFile
{
    version     2.0;
    format      ascii;
    class       volScalarField;
    location    "0.000558243009";
    object      ddt0(rho,C5H10-1);
}
// * * * * * * * * * * * * * * * * * * * * * * * * * * * * * * * * * * * * * //

dimensions      [1 -3 -1 0 0 0 0];

internalField   nonuniform List<scalar> 
1500
(
-1.517533009e-10
-4.570445617e-10
-6.871377495e-10
-6.949076718e-10
-5.318710835e-10
-3.28369043e-10
-1.701643578e-10
-7.612872731e-11
-3.019275784e-11
-1.119370035e-11
-4.568779414e-12
-2.817577725e-12
-2.722495952e-12
-3.092324906e-12
-3.526978124e-12
-3.903531834e-12
-4.18561073e-12
-4.362776862e-12
-4.433077892e-12
-4.398098341e-12
-4.261616502e-12
-4.029159919e-12
-3.707756534e-12
-3.305724548e-12
-2.832468254e-12
-2.29828235e-12
-1.714173629e-12
-1.09170722e-12
-4.428784097e-13
2.19995555e-13
8.843748686e-13
1.537602699e-12
2.167032132e-12
2.760187719e-12
3.304968694e-12
3.789895268e-12
4.2043926e-12
4.539096322e-12
4.786163871e-12
4.939567788e-12
4.995347429e-12
4.951797193e-12
4.809573658e-12
4.57171004e-12
4.243534005e-12
3.83249242e-12
3.347893777e-12
2.800585027e-12
2.202583307e-12
1.566684712e-12
9.060721154e-13
2.339410445e-13
-4.368409459e-13
-1.094030643e-12
-1.726255435e-12
-2.323208252e-12
-2.875793182e-12
-3.376226258e-12
-3.818097162e-12
-4.196397333e-12
-4.507519246e-12
-4.749230055e-12
-4.920621846e-12
-5.022038762e-12
-5.054981585e-12
-5.02198952e-12
-4.926500646e-12
-4.77269344e-12
-4.565313983e-12
-4.309495355e-12
-4.010577267e-12
-3.673935073e-12
-3.304827415e-12
-2.908270915e-12
-2.488948838e-12
-2.051157548e-12
-1.598792358e-12
-1.135370453e-12
-6.640860254e-13
-1.878902736e-13
2.904130135e-13
7.680660538e-13
1.242259716e-12
1.710049193e-12
2.168289751e-12
2.613597878e-12
3.042340667e-12
3.450654159e-12
3.834489326e-12
4.18968238e-12
4.51204498e-12
4.797468849e-12
5.042038784e-12
5.24214782e-12
5.394608666e-12
5.496755421e-12
5.546531028e-12
5.542555902e-12
5.484175042e-12
5.371481597e-12
5.205316409e-12
4.987244556e-12
4.719510926e-12
4.404978332e-12
4.047052461e-12
3.649598447e-12
3.216854265e-12
2.753345604e-12
2.263806203e-12
1.75310681e-12
1.22619438e-12
6.880417599e-13
1.436071169e-13
-4.02199252e-13
-9.44543195e-13
-1.478693378e-12
-2.000049088e-12
-2.504171593e-12
-2.986820477e-12
-3.44399517e-12
-3.87198086e-12
-4.267396795e-12
-4.627244462e-12
-4.948952383e-12
-5.230414383e-12
-5.47001856e-12
-5.666664943e-12
-5.819770676e-12
-5.929262831e-12
-5.995559868e-12
-6.019543659e-12
-6.002524858e-12
-5.946204426e-12
-5.852634167e-12
-5.724178677e-12
-5.563480378e-12
-5.373428136e-12
-5.15712931e-12
-4.917883458e-12
-4.659155747e-12
-4.384546938e-12
-4.097756999e-12
-3.8025396e-12
-3.502644984e-12
-3.20175058e-12
-2.903379202e-12
-2.61080683e-12
-2.326963261e-12
-2.054330779e-12
-1.79484663e-12
-1.549816511e-12
-1.319846087e-12
-1.104797771e-12
-9.037781679e-13
-7.151612381e-13
-5.366488402e-13
-3.653693413e-13
-1.980106672e-13
-3.098334464e-14
1.393951926e-13
3.167042371e-13
5.042232396e-13
7.047468811e-13
9.204238731e-13
1.152630178e-12
1.401886221e-12
1.667823752e-12
1.949205866e-12
2.243999183e-12
2.549493597e-12
2.86246127e-12
3.179343169e-12
3.496448915e-12
3.810154958e-12
4.117085362e-12
4.41426073e-12
4.699204374e-12
4.969997411e-12
5.22527993e-12
5.464199985e-12
5.6863175e-12
5.891474165e-12
6.079643745e-12
6.250779231e-12
6.404672968e-12
6.540844543e-12
6.658468246e-12
6.756346628e-12
6.832933378e-12
6.8864023e-12
6.914755899e-12
6.915963292e-12
6.888115368e-12
6.829584729e-12
6.739178862e-12
6.616276087e-12
6.460936501e-12
6.273981966e-12
6.05704056e-12
5.812550945e-12
5.543724212e-12
5.254457873e-12
4.949199e-12
4.632754363e-12
4.31004721e-12
3.985828422e-12
3.664354289e-12
3.349055623e-12
3.042230679e-12
2.74480428e-12
2.456200747e-12
2.17437747e-12
1.896057655e-12
1.617184999e-12
1.33359569e-12
1.041869957e-12
7.402884657e-13
4.297808672e-13
1.147211619e-13
-1.965922855e-13
-4.919363378e-13
-7.557822441e-13
-9.706258337e-13
-1.119044055e-12
-1.186396572e-12
-1.163980635e-12
-1.052334349e-12
-8.64282841e-13
-6.272502749e-13
-3.843319387e-13
-1.936501567e-13
-1.256121513e-13
-2.578542655e-13
-6.678817798e-13
-1.423693592e-12
-2.572985436e-12
-4.131828041e-12
-6.073985924e-12
-8.322235994e-12
-1.07431348e-11
-1.314663413e-11
-1.529176706e-11
-1.689930929e-11
-1.767214994e-11
-1.732382629e-11
-1.561742561e-11
-1.241438029e-11
-7.738239785e-12
-1.792136283e-12
5.16139701e-12
9.483595855e-12
1.001061602e-11
1.050213296e-11
1.098625451e-11
1.146880096e-11
1.195033505e-11
1.24298271e-11
1.290657448e-11
1.337998594e-11
1.384966601e-11
1.431526648e-11
1.477639764e-11
1.523266751e-11
1.568360891e-11
1.612874723e-11
1.65676111e-11
1.699968524e-11
1.742444922e-11
1.784136493e-11
1.824989111e-11
1.864945766e-11
1.903945261e-11
1.94192797e-11
1.978829799e-11
2.014587873e-11
2.049129805e-11
2.082388014e-11
2.114287708e-11
2.14475587e-11
2.173710463e-11
2.201072515e-11
2.226755181e-11
2.250671148e-11
2.272729421e-11
2.292831897e-11
2.310880752e-11
2.326772691e-11
2.340397735e-11
2.351644002e-11
2.360394168e-11
2.366524376e-11
2.369905624e-11
2.370402417e-11
2.367875344e-11
2.362174906e-11
2.353145369e-11
2.340625538e-11
2.324443373e-11
2.304417815e-11
2.280361347e-11
2.252073282e-11
2.219344543e-11
2.181952064e-11
2.139663912e-11
2.092232858e-11
2.039397956e-11
1.980882928e-11
1.916395697e-11
1.845627926e-11
1.768252576e-11
1.683920587e-11
1.592265495e-11
1.492894397e-11
1.385393453e-11
1.269319746e-11
1.144206316e-11
1.009552577e-11
8.648272898e-12
7.094667809e-12
5.428670276e-12
3.643882302e-12
1.733470886e-12
-3.098288296e-13
-2.493802573e-12
-4.826692035e-12
-7.317347003e-12
-9.975144939e-12
-1.281012699e-11
-1.583297646e-11
-1.905510825e-11
-2.248867813e-11
-2.614664939e-11
-3.00428681e-11
-3.419203093e-11
-3.8609886e-11
-4.331314265e-11
-4.831965775e-11
-5.364841747e-11
-5.93196297e-11
-6.535483858e-11
-7.177695003e-11
-7.861032346e-11
-8.588087601e-11
-9.361613848e-11
-1.018453624e-10
-1.105996235e-10
-1.19911871e-10
-1.298170869e-10
-1.403523444e-10
-1.51556935e-10
-1.634724711e-10
-1.761429709e-10
-1.896150422e-10
-2.039378912e-10
-2.191635529e-10
-2.353469388e-10
-2.525459489e-10
-2.708216603e-10
-2.902384009e-10
-3.108638758e-10
-3.3276931e-10
-3.560295636e-10
-3.807232339e-10
-4.069328254e-10
-4.347448193e-10
-4.64249832e-10
-4.955426761e-10
-5.287225729e-10
-5.63893117e-10
-6.011624988e-10
-6.406435349e-10
-6.824537897e-10
-7.267156369e-10
-7.735563337e-10
-8.23108118e-10
-8.755081837e-10
-9.308988383e-10
-9.894274179e-10
-1.051246408e-09
-1.116513365e-09
-1.185390955e-09
-1.258046929e-09
-1.334654057e-09
-1.415390116e-09
-1.500437743e-09
-1.589984381e-09
-1.684222207e-09
-1.783347913e-09
-1.887562605e-09
-1.997071642e-09
-2.112084351e-09
-2.232813898e-09
-2.35947698e-09
-2.492293622e-09
-2.63148678e-09
-2.777282142e-09
-2.929907663e-09
-3.089593314e-09
-3.256570632e-09
-3.431072285e-09
-3.613331688e-09
-3.803582478e-09
-4.002058118e-09
-4.208991284e-09
-4.424613433e-09
-4.649154182e-09
-4.882840781e-09
-5.125897548e-09
-5.378545199e-09
-5.641000305e-09
-5.913474632e-09
-6.196174485e-09
-6.48930013e-09
-6.793045008e-09
-7.107595213e-09
-7.43312879e-09
-7.769814968e-09
-8.117813659e-09
-8.477274674e-09
-8.848337147e-09
-9.23112889e-09
-9.625765672e-09
-1.003235077e-08
-1.045097426e-08
-1.088171244e-08
-1.132462736e-08
-1.177976629e-08
-1.224716112e-08
-1.272682805e-08
-1.321876716e-08
-1.372296186e-08
-1.423937876e-08
-1.47679673e-08
-1.530865946e-08
-1.586136955e-08
-1.642599423e-08
-1.700241218e-08
-1.759048428e-08
-1.819005345e-08
-1.880094487e-08
-1.942296609e-08
-2.005590716e-08
-2.069954103e-08
-2.135362374e-08
-2.201789497e-08
-2.269207847e-08
-2.337588248e-08
-2.406900051e-08
-2.477111195e-08
-2.54818828e-08
-2.620096645e-08
-2.692800473e-08
-2.766262859e-08
-2.840445955e-08
-2.915311023e-08
-2.990818602e-08
-3.066928609e-08
-3.143600462e-08
-3.22079323e-08
-3.298465778e-08
-3.376576888e-08
-3.455085468e-08
-3.533950646e-08
-3.613132007e-08
-3.692589712e-08
-3.772284705e-08
-3.852178919e-08
-3.932235426e-08
-4.012418665e-08
-4.092694633e-08
-4.173031118e-08
-4.253397903e-08
-4.333766977e-08
-4.414112791e-08
-4.494412483e-08
-4.574646122e-08
-4.654796951e-08
-4.734851665e-08
-4.814800667e-08
-4.894638305e-08
-4.974363214e-08
-5.053978575e-08
-5.133492382e-08
-5.212917801e-08
-5.292273419e-08
-5.371583626e-08
-5.450878906e-08
-5.530196195e-08
-5.609579234e-08
-5.689078913e-08
-5.768753644e-08
-5.848669764e-08
-5.92890192e-08
-6.009533452e-08
-6.090656832e-08
-6.172374113e-08
-6.254797314e-08
-6.338048895e-08
-6.422262299e-08
-6.507582281e-08
-6.594165532e-08
-6.682181153e-08
-6.771811125e-08
-6.863250869e-08
-6.956709823e-08
-7.052411977e-08
-7.150596386e-08
-7.251517874e-08
-7.355447479e-08
-7.462672985e-08
-7.573499436e-08
-7.688247303e-08
-7.807276694e-08
-7.929942111e-08
-8.057727668e-08
-8.191788045e-08
-8.333828858e-08
-8.481603574e-08
-8.635555816e-08
-8.796178443e-08
-8.963986519e-08
-9.139523328e-08
-9.323360082e-08
-9.516096984e-08
-9.718364542e-08
-9.930824407e-08
-1.015416596e-07
-1.038939912e-07
-1.064142601e-07
-1.09071795e-07
-1.118743791e-07
-1.148307089e-07
-1.179393134e-07
-1.21211357e-07
-1.246635022e-07
-1.283055075e-07
-1.321474718e-07
-1.361999264e-07
-1.40473804e-07
-1.449804415e-07
-1.497315922e-07
-1.54739437e-07
-1.60016596e-07
-1.655761458e-07
-1.714316292e-07
-1.775970728e-07
-1.840870031e-07
-1.909164614e-07
-1.981010229e-07
-2.056568172e-07
-2.136005468e-07
-2.219495122e-07
-2.307216332e-07
-2.399354789e-07
-2.496102915e-07
-2.597660203e-07
-2.704233524e-07
-2.816037479e-07
-2.933294795e-07
-3.05623671e-07
-3.185103434e-07
-3.320144603e-07
-3.461619798e-07
-3.609799065e-07
-3.76496353e-07
-3.927405984e-07
-4.097431573e-07
-4.275358497e-07
-4.46151876e-07
-4.656259016e-07
-4.859941377e-07
-5.072944403e-07
-5.295664053e-07
-5.528514797e-07
-5.771930706e-07
-6.026366785e-07
-6.292300274e-07
-6.570232184e-07
-6.860688921e-07
-7.164224176e-07
-7.481421012e-07
-7.812894276e-07
-8.159293382e-07
-8.521305606e-07
-8.899660031e-07
-9.295132268e-07
-9.708550292e-07
-1.014080166e-06
-1.059284247e-06
-1.106570889e-06
-1.156053143e-06
-1.207855364e-06
-1.262115586e-06
-1.318988603e-06
-1.378649956e-06
-1.441301112e-06
-1.507176208e-06
-1.576550842e-06
-1.649753543e-06
-1.727180757e-06
-1.809316433e-06
-1.896757636e-06
-1.990248047e-06
-2.090721788e-06
-2.199360766e-06
-2.317669702e-06
-2.447574298e-06
-2.591549666e-06
-2.752788339e-06
-2.935420039e-06
-3.144799053e-06
-3.387880083e-06
-3.673709543e-06
-4.014067794e-06
-4.424308423e-06
-4.924454871e-06
-5.540632874e-06
-6.306941257e-06
-7.267894559e-06
-8.481611373e-06
-1.002397511e-05
-1.199406215e-05
-1.452122118e-05
-1.777430348e-05
-2.197369322e-05
-2.740698216e-05
-3.444938454e-05
-4.359031596e-05
-5.546798154e-05
-7.091436779e-05
-9.101373749e-05
-0.000117178641
-0.0001512486324
-0.0001956183946
-0.0002534039189
-0.0003286578897
-0.0004266486135
-0.0005542209236
-0.0007202627043
-0.0009363072916
-0.001217310421
-0.001582650978
-0.002057418156
-0.002674064342
-0.003474523815
-0.004512923107
-0.005859040548
-0.007602710922
-0.009859417778
-0.01277737107
-0.0165464328
-0.02140932778
-0.02767566026
-0.03573934773
-0.04610017692
-0.05939027525
-0.07640636516
-0.0981487331
-0.1258676685
-0.161118479
-0.2058252175
-0.2623535278
-0.3335919373
-0.4230399405
-0.5349004785
-0.6741707078
-0.846725527
-1.05938278
-1.319937419
-1.637147985
-2.020655453
-2.48081155
-3.028391614
-3.674166591
-4.428310343
-5.299622807
-6.294557346
-7.416050604
-8.66217017
-10.02460909
-11.48707921
-13.02367474
-14.59729486
-16.15824448
-17.64309536
-18.97393777
-20.05805197
-20.78789723
-21.0415683
-20.6828434
-19.56148239
-17.51257536
-14.35530462
-9.891464167
-3.911185399
3.761520156
13.09048627
24.98914485
37.75164824
61.33913045
86.62156763
112.5283638
98.80682559
144.5856779
179.0256572
210.0016667
238.7652423
267.4032302
304.3114595
353.5661852
397.8643029
412.7245753
373.7067652
339.4124456
222.9804713
127.342738
-5.97737727
-165.0191013
-237.2239202
-426.2747294
-627.2254489
-839.487939
-717.0027708
-878.0458027
-999.2024922
-1083.178683
-1132.140799
-1139.724191
-1099.358841
-970.5654591
-846.5830256
-699.9107445
-556.6338768
-428.2462689
-321.1417039
-236.1328912
-171.3894393
-122.6949416
-85.96056511
-59.78628344
-41.33398665
-28.40984285
-19.46711522
-13.36116811
-9.210439479
-6.380506519
-4.417124563
-3.019608536
-2.058347571
-1.409911204
-0.9623753547
-0.6549107132
-0.444547072
-0.3011050766
-0.2035656839
-0.1373360939
-0.09251895458
-0.06221779982
-0.04176567917
-0.02798458857
-0.01871458277
-0.01249012556
-0.008318409499
-0.005527911362
-0.003665133201
-0.002424316357
-0.001599649096
-0.001052850784
-0.0006911861727
-0.0004525866426
-0.0002955956357
-0.000192584704
-0.000125183925
-8.120933191e-05
-5.260082281e-05
-3.404098863e-05
-2.203197095e-05
-1.427983628e-05
-9.285008974e-06
-6.070475586e-06
-4.00190246e-06
-2.66892428e-06
-1.807039948e-06
-1.24639189e-06
-8.782915742e-07
-6.334233521e-07
-4.677080653e-07
-3.531728381e-07
-2.720802965e-07
-2.131712604e-07
-1.692718311e-07
-1.357771377e-07
-1.096955054e-07
-8.904894766e-08
-7.249890838e-08
-5.911352954e-08
-4.822326782e-08
-3.933135799e-08
-3.20580451e-08
-2.610553882e-08
-2.123562128e-08
-1.725497053e-08
-1.400520395e-08
-1.135583861e-08
-9.199091025e-09
-7.44587472e-09
-6.022613743e-09
-4.868641078e-09
-3.934039525e-09
-3.177833305e-09
-2.566467388e-09
-2.072528211e-09
-1.673669438e-09
-1.351712684e-09
-1.091897549e-09
-8.822586895e-10
-7.131104728e-10
-5.766222827e-10
-4.664697772e-10
-3.775494612e-10
-3.057457706e-10
-2.477415082e-10
-2.008639219e-10
-1.62959976e-10
-1.322954548e-10
-1.074734649e-10
-8.736868742e-11
-7.107439001e-11
-5.785975543e-11
-4.713554012e-11
-3.842644809e-11
-3.134891359e-11
-2.559323617e-11
-2.090921594e-11
-1.70946021e-11
-1.398580234e-11
-1.145040827e-11
-9.381180235e-12
-7.691204202e-12
-6.309990877e-12
-5.18033189e-12
-4.255764793e-12
-3.498528068e-12
-2.877909587e-12
-2.368912986e-12
-1.951179478e-12
-1.608115645e-12
-1.326187439e-12
-1.094348335e-12
-9.035757981e-13
-7.464952946e-13
-6.17075093e-13
-5.103783565e-13
-4.223616278e-13
-3.497109108e-13
-2.897082406e-13
-2.401229951e-13
-1.991233002e-13
-1.652037615e-13
-1.371264754e-13
-1.138728448e-13
-9.460419504e-14
-7.862955943e-14
-6.537931257e-14
-5.438357496e-14
-4.525451371e-14
-3.7671827e-14
-3.137083146e-14
-2.613267967e-14
-2.177632139e-14
-1.815189352e-14
-1.513528153e-14
-1.262364169e-14
-1.05317122e-14
-8.788772324e-15
-7.336134124e-15
-6.125072295e-15
-5.115114551e-15
-4.272628937e-15
-3.569655838e-15
-2.982941732e-15
-2.49313942e-15
-2.084145678e-15
-1.742552424e-15
-1.457191723e-15
-1.218758387e-15
-1.019496777e-15
-8.529407792e-16
-7.136978135e-16
-5.972693385e-16
-4.999016294e-16
-4.184616653e-16
-3.50333861e-16
-2.933341094e-16
-2.456382067e-16
-2.057222324e-16
-1.7231287e-16
-1.443459984e-16
-1.209321664e-16
-1.013277964e-16
-8.491116228e-17
-7.11623423e-17
-5.964648628e-17
-4.999984581e-17
-4.191810822e-17
-3.514665258e-17
-2.947240941e-17
-2.471705879e-17
-2.073134597e-17
-1.739032987e-17
-1.458941095e-17
-1.224101e-17
-1.027179077e-17
-8.620337224e-18
-7.23521055e-18
-6.073323838e-18
-5.098582199e-18
-4.280744909e-18
-3.594473213e-18
-3.018533423e-18
-2.535129899e-18
-2.129346712e-18
-1.788680216e-18
-1.502647708e-18
-1.262459743e-18
-1.060745739e-18
-8.913241721e-19
-7.490101073e-19
-6.294539742e-19
-5.290065099e-19
-4.446056054e-19
-3.736814969e-19
-3.140773159e-19
-2.639825064e-19
-2.218770157e-19
-1.864845126e-19
-1.567331664e-19
-1.317227615e-19
-1.106971205e-19
-9.30209753e-20
-7.816056733e-20
-6.566737182e-20
-5.516444254e-20
-4.633495261e-20
-3.891257694e-20
-3.267341932e-20
-2.742923487e-20
-2.302173919e-20
-1.931782921e-20
-1.62055691e-20
-1.359081827e-20
-1.139439823e-20
-9.549711942e-21
-8.00074302e-21
-6.700373974e-21
-5.60897241e-21
-4.693202318e-21
-3.925024499e-21
-3.280855926e-21
-2.740862673e-21
-2.28836514e-21
-1.909337688e-21
-1.591987639e-21
-1.326401053e-21
-1.104244647e-21
-9.185149523e-22
-7.633272124e-22
-6.33737722e-22
-5.255943041e-22
-4.354104678e-22
-3.602595005e-22
-2.97685337e-22
-2.456275528e-22
-2.023582452e-22
-1.664289244e-22
-1.366258312e-22
-1.119323475e-22
-9.14973797e-23
-7.460876877e-23
-6.067093312e-23
-4.918607314e-23
-3.973837413e-23
-3.198073255e-23
-2.562360526e-23
-2.042564546e-23
-1.618584093e-23
-1.273691636e-23
-9.939798381e-24
-7.678973856e-24
-5.858599227e-24
-4.399240628e-24
-3.235143993e-24
-2.311950103e-24
-1.584783185e-24
-1.01665288e-24
-5.771190892e-25
-2.411771789e-25
1.16721563e-26
1.981983561e-25
3.320870064e-25
4.244775207e-25
4.844102671e-25
5.191980108e-25
5.347341755e-25
5.357483666e-25
5.260179421e-25
5.085429463e-25
4.85690565e-25
4.593142228e-25
4.308516182e-25
4.014052754e-25
3.718086081e-25
3.426799775e-25
3.14466834e-25
2.874816605e-25
2.619311601e-25
2.379398829e-25
2.155692808e-25
1.948330137e-25
1.75709187e-25
1.58150085e-25
1.420898608e-25
1.274505708e-25
1.14146866e-25
1.020896005e-25
9.118857002e-26
8.135455406e-26
7.250080443e-26
6.454409577e-26
5.74054316e-26
5.10104835e-26
4.528982312e-26
4.017899811e-26
3.561849059e-26
3.155358995e-26
2.793420475e-26
2.471463379e-26
2.185331088e-26
1.931253565e-26
1.705819947e-26
1.505951248e-26
1.328873739e-26
1.172093317e-26
1.033371131e-26
9.10700562e-27
8.022857307e-27
7.065214773e-27
6.219748681e-27
5.473681627e-27
4.815632155e-27
4.235472254e-27
3.724197564e-27
3.273809713e-27
2.877209705e-27
2.528101528e-27
2.220905318e-27
1.950679453e-27
1.713050175e-27
1.504148793e-27
1.320555343e-27
1.159248083e-27
1.017558866e-27
8.931325428e-28
7.838914201e-28
6.880034372e-28
6.038537341e-28
5.300195644e-28
4.652479963e-28
4.084359897e-28
3.586128708e-28
3.149246946e-28
2.766205326e-28
2.430402093e-28
2.136035595e-28
1.878008714e-28
1.651844683e-28
1.453612858e-28
1.279862823e-28
1.127566371e-28
9.940670087e-29
8.770345109e-29
7.744255996e-29
6.844489559e-29
6.055343626e-29
5.363058723e-29
4.75558037e-29
4.222348351e-29
3.754115253e-29
3.342782275e-29
2.981259616e-29
2.66334192e-29
2.383597112e-29
2.137272469e-29
1.920209481e-29
1.728770142e-29
1.559772207e-29
1.410432334e-29
1.278316175e-29
1.161295971e-29
1.057508957e-29
9.653266383e-30
8.833268112e-30
8.102649213e-30
7.450531221e-30
6.867402818e-30
6.344943702e-30
5.875871105e-30
5.453821432e-30
5.073233828e-30
4.72923816e-30
4.417574443e-30
4.13451497e-30
3.87678792e-30
3.641535988e-30
3.426249548e-30
3.228735326e-30
3.047067269e-30
2.879553462e-30
2.724710434e-30
2.58123031e-30
2.447968212e-30
2.323912559e-30
2.208171716e-30
2.099962862e-30
1.99859197e-30
1.903442888e-30
1.813972834e-30
1.729698719e-30
1.650192125e-30
1.575072928e-30
1.503999196e-30
1.436667327e-30
1.372803801e-30
1.312163059e-30
1.25452683e-30
1.199694239e-30
1.147487163e-30
1.097741005e-30
1.050308003e-30
1.005051464e-30
9.618488125e-31
9.205861509e-31
8.811566945e-31
8.434655578e-31
8.07423235e-31
7.729462167e-31
7.399577119e-31
7.083871309e-31
6.781657222e-31
6.492303783e-31
6.215234675e-31
5.949880616e-31
5.695733059e-31
5.452294034e-31
5.219101387e-31
4.995696078e-31
4.781663018e-31
4.576603153e-31
4.38013908e-31
4.191903832e-31
4.011553715e-31
3.838761943e-31
3.673219141e-31
3.514621741e-31
3.362684589e-31
3.217130671e-31
3.077695352e-31
2.944127972e-31
2.816187381e-31
2.693652675e-31
2.576294716e-31
2.463900067e-31
2.356259493e-31
2.253178312e-31
2.154472814e-31
2.059968212e-31
1.969489111e-31
1.882869343e-31
1.799943561e-31
1.72056161e-31
1.644582087e-31
1.57186047e-31
1.502258556e-31
1.435649347e-31
1.371910744e-31
1.310921215e-31
1.252567011e-31
1.19673896e-31
1.143329635e-31
1.092238992e-31
1.043368896e-31
9.966216171e-32
9.519137377e-32
9.091557309e-32
8.682652381e-32
8.291628289e-32
7.917744839e-32
7.560286964e-32
7.218513382e-32
6.891782534e-32
6.579448562e-32
6.280895821e-32
5.995524987e-32
5.722779111e-32
5.462137622e-32
5.213049403e-32
4.975020487e-32
4.747580438e-32
4.530265354e-32
4.322640312e-32
4.124278753e-32
3.934776787e-32
3.753755327e-32
3.58084354e-32
3.415683315e-32
3.257945252e-32
3.107310572e-32
2.963456695e-32
2.826083484e-32
2.69490322e-32
2.569638805e-32
2.450031103e-32
2.335837386e-32
2.226824237e-32
2.122741625e-32
2.023389586e-32
1.928548721e-32
1.838015948e-32
1.751600103e-32
1.669107139e-32
1.590360175e-32
1.515188497e-32
1.443423052e-32
1.374894381e-32
1.309437768e-32
1.246895398e-32
1.187096627e-32
1.129871386e-32
1.075026137e-32
1.022345526e-32
9.715911778e-33
9.224744871e-33
8.746491908e-33
8.27721172e-33
7.81210701e-33
7.346743819e-33
6.877587339e-33
6.406185441e-33
5.946239183e-33
5.53979294e-33
3.474446716e-33
2.443028295e-33
1.213941018e-33
5.904357275e-34
2.83856703e-34
1.34730368e-34
6.309744401e-35
2.912152101e-35
1.322209431e-35
5.899321538e-36
2.58386495e-36
1.102227873e-36
4.57594601e-37
1.827539851e-37
6.958188279e-38
2.439436842e-38
7.341497387e-39
1.529111189e-39
-1.994424762e-40
-5.13836603e-40
-4.504513429e-40
-2.963541304e-40
-1.830548673e-40
-9.680380056e-41
-5.412273663e-41
-2.761481054e-41
-1.403890582e-41
-7.037778855e-42
-3.429280105e-42
-1.638163442e-42
-7.752151417e-43
-3.535787052e-43
-1.689427915e-43
-6.937094538e-44
-2.920882423e-44
-1.146610335e-44
-8.194391967e-45
-3.13986562e-45
-1.11038436e-45
-3.361715378e-46
-6.257093339e-46
9.080839491e-47
-2.063261491e-46
-5.027637496e-46
-5.933524233e-46
-1.179306547e-45
-2.111312036e-47
4.536851521e-46
-7.761348949e-46
-2.67983101e-46
-1.152831257e-46
-3.633791814e-47
-1.610966232e-46
6.499141222e-46
1.16058305e-45
-2.045219604e-45
-1.427788169e-45
1.827831802e-45
4.563670189e-47
-4.525439131e-47
-9.10549847e-46
-1.214737964e-47
4.565669565e-46
-5.102900533e-46
-5.81295129e-46
-1.032224439e-47
1.642365161e-46
-6.030824978e-49
1.160223649e-47
-2.352492595e-47
-4.490666543e-48
-2.123631069e-47
1.43556168e-46
2.599230026e-46
-9.221994975e-46
-4.235962839e-46
8.771094995e-46
-6.063730469e-46
5.125255969e-46
-2.257336269e-47
4.135145477e-46
1.029881275e-47
-7.095033046e-47
-1.187622068e-46
2.402287259e-46
-1.25909424e-46
8.672420323e-49
-1.364700472e-47
-5.825741339e-47
-1.715899974e-47
1.503629135e-46
4.076832005e-48
3.237168388e-47
6.881919953e-49
1.554980344e-47
3.344385684e-48
-1.571656305e-47
-1.515035949e-47
1.976505242e-49
2.334699146e-47
3.991458891e-49
-1.029149993e-47
9.021458567e-49
-1.277783251e-47
-1.192093856e-47
-8.105588979e-48
-1.524912109e-47
-2.718585408e-47
3.178497369e-47
5.831642408e-49
1.94184401e-48
2.289370102e-48
2.250108691e-49
1.238057461e-47
1.773533188e-49
8.628259184e-51
3.002508305e-48
7.261887434e-50
8.933591855e-48
3.469770213e-48
-5.97995726e-48
3.032593658e-48
-9.279830825e-48
1.385034331e-49
2.430104636e-48
-4.580565483e-50
-4.894595068e-48
3.729928025e-48
4.349109668e-50
-1.139170777e-48
-2.476900522e-51
-1.023250607e-47
9.083567e-48
1.948361468e-49
-3.140080718e-48
5.529653018e-48
-5.557310848e-48
-1.832244971e-48
1.961081157e-47
4.010072926e-48
-1.602178189e-47
8.517410279e-50
-1.667331183e-47
6.805720195e-48
-4.148076632e-48
-4.897886056e-47
-6.516226252e-48
4.935778083e-47
1.703949603e-47
1.910675719e-47
1.849672769e-47
5.427415331e-49
-1.539513196e-47
-2.299525259e-47
-2.070964428e-47
-1.002411802e-47
9.908363546e-49
-1.993071742e-47
3.362946442e-47
-1.30511505e-47
2.918978813e-47
-1.37852442e-47
3.97517354e-47
4.193709434e-47
-1.478788117e-47
-2.777671013e-47
9.69994091e-50
1.513428492e-49
-3.584589844e-48
3.339594959e-47
-1.554027869e-47
-2.060488977e-47
-1.365387431e-48
-3.524662562e-48
-9.38292891e-48
-4.22514051e-47
-1.475331367e-47
1.28202727e-47
2.789264671e-47
1.01762871e-47
2.078349969e-47
1.174694302e-48
-1.841454594e-48
4.310308798e-48
5.629216381e-47
-6.177700663e-48
1.22917453e-47
1.282443079e-49
1.071672468e-47
-7.180472634e-48
2.930689354e-47
1.726828994e-47
-4.654533654e-48
2.851305431e-47
1.814589847e-47
1.506377814e-47
-7.707841066e-48
7.805430235e-48
1.025286861e-47
-1.402557803e-47
-3.982712997e-48
-1.758791729e-47
4.039424617e-48
-7.585348572e-48
-1.470644134e-47
-1.967138292e-47
-5.354265549e-48
1.501514114e-47
5.632405644e-49
-2.508032476e-48
8.162733912e-48
1.498329942e-47
-1.566258145e-48
-1.901209575e-48
-1.612383899e-48
2.492782901e-47
1.682681431e-49
9.440554116e-48
5.739885493e-50
-8.459150719e-50
5.767266477e-48
3.246039002e-48
-4.247351364e-50
2.35799842e-48
-1.418538777e-48
7.914343414e-49
3.032914337e-48
2.919141874e-48
-1.092767624e-47
-3.023421244e-48
2.099711116e-49
-1.195570048e-49
6.269306825e-51
7.381752889e-48
1.419827023e-48
-1.809743855e-47
1.02658032e-48
-2.095569572e-48
-2.358160488e-48
-3.19899632e-49
-1.062829105e-47
-4.051731299e-50
-2.613617107e-51
1.206649374e-48
-7.004721355e-48
-1.40979868e-48
-1.567912479e-47
-2.771507687e-47
3.776571959e-48
-1.737966278e-48
)
;

boundaryField
{
    inlet
    {
        type            calculated;
        value           uniform 0;
    }
    outlet
    {
        type            calculated;
        value           uniform -1.737966308e-48;
    }
    wall
    {
        type            empty;
    }
}


// ************************************************************************* //
