/*--------------------------------*- C++ -*----------------------------------*\
  =========                 |
  \\      /  F ield         | OpenFOAM: The Open Source CFD Toolbox
   \\    /   O peration     | Website:  https://openfoam.org
    \\  /    A nd           | Version:  7
     \\/     M anipulation  |
\*---------------------------------------------------------------------------*/
FoamFile
{
    version     2.0;
    format      ascii;
    class       volScalarField;
    location    "0.000558243009";
    object      ddt0(rho,C5H9);
}
// * * * * * * * * * * * * * * * * * * * * * * * * * * * * * * * * * * * * * //

dimensions      [1 -3 -1 0 0 0 0];

internalField   nonuniform List<scalar> 
1500
(
-1.688844839e-12
-5.096494751e-12
-7.673675645e-12
-7.771333613e-12
-5.955827018e-12
-3.681578743e-12
-1.910131592e-12
-8.555904582e-13
-3.397298996e-13
-1.260618849e-13
-5.14210322e-14
-3.16157629e-14
-3.047333353e-14
-3.458301903e-14
-3.943532261e-14
-4.364338057e-14
-4.679663522e-14
-4.877729921e-14
-4.956326341e-14
-4.917217567e-14
-4.76462633e-14
-4.504732289e-14
-4.145392842e-14
-3.695907997e-14
-3.166792057e-14
-2.569554831e-14
-1.916502271e-14
-1.220564568e-14
-4.95152841e-15
2.459618235e-15
9.88759517e-15
1.71908949e-14
2.422812083e-14
3.08597933e-14
3.695062191e-14
4.237225883e-14
4.700647387e-14
5.074857045e-14
5.351086603e-14
5.522597176e-14
5.584960632e-14
5.53627005e-14
5.37725951e-14
5.111320244e-14
4.744408755e-14
4.284850886e-14
3.743053831e-14
3.131144837e-14
2.462559453e-14
1.751604127e-14
1.013017746e-14
2.61553334e-15
-4.884027628e-15
-1.223162232e-14
-1.930010125e-14
-2.597422802e-14
-3.215230734e-14
-3.774731202e-14
-4.268757255e-14
-4.691709154e-14
-5.039553582e-14
-5.309794132e-14
-5.501415731e-14
-5.614803144e-14
-5.651634292e-14
-5.61474809e-14
-5.507988419e-14
-5.336026957e-14
-5.104169977e-14
-4.818156428e-14
-4.483956274e-14
-4.107579346e-14
-3.694904972e-14
-3.2515419e-14
-2.782726169e-14
-2.29326126e-14
-1.787502255e-14
-1.269381484e-14
-7.424701564e-15
-2.100678067e-15
3.246908336e-15
8.587224785e-15
1.388886424e-14
1.911890283e-14
2.42421814e-14
2.922087121e-14
3.401435509e-14
3.857943282e-14
4.287083492e-14
4.684200886e-14
5.044612766e-14
5.363725938e-14
5.637163086e-14
5.860891501e-14
6.031347683e-14
6.145551082e-14
6.201201832e-14
6.196757512e-14
6.13148581e-14
6.00549087e-14
5.819712786e-14
5.575901355e-14
5.276566443e-14
4.924908768e-14
4.524735994e-14
4.08036947e-14
3.596547393e-14
3.078329626e-14
2.531008642e-14
1.9600301e-14
1.370924857e-14
7.692527114e-15
1.605570635e-15
-4.496722201e-15
-1.056030399e-14
-1.653227688e-14
-2.236120338e-14
-2.799745705e-14
-3.339362866e-14
-3.850499051e-14
-4.329000982e-14
-4.771088866e-14
-5.173410266e-14
-5.533090192e-14
-5.847773871e-14
-6.115659139e-14
-6.335516194e-14
-6.506693384e-14
-6.629109181e-14
-6.703231423e-14
-6.730046083e-14
-6.71101851e-14
-6.648050434e-14
-6.543435839e-14
-6.39981842e-14
-6.22015249e-14
-6.007667901e-14
-5.765838774e-14
-5.498354125e-14
-5.209088123e-14
-4.902066536e-14
-4.581426053e-14
-4.251363392e-14
-3.916071452e-14
-3.579661715e-14
-3.246072807e-14
-2.918967371e-14
-2.601621025e-14
-2.296809037e-14
-2.006697314e-14
-1.732745665e-14
-1.475631248e-14
-1.235200233e-14
-1.01045377e-14
-7.995739066e-15
-5.999912353e-15
-4.084951787e-15
-2.213827371e-15
-3.464075451e-16
1.558479953e-15
3.540852761e-15
5.637376239e-15
7.879295805e-15
1.029063475e-14
1.288677683e-14
1.56735405e-14
1.864680867e-14
2.179275225e-14
2.508863746e-14
2.850416445e-14
3.200324489e-14
3.554608765e-14
3.909143309e-14
4.259876875e-14
4.603035055e-14
4.935286788e-14
5.253863056e-14
5.556618484e-14
5.84203265e-14
6.109153046e-14
6.357487656e-14
6.586859487e-14
6.7972392e-14
6.98857424e-14
7.160632448e-14
7.312876699e-14
7.444383827e-14
7.553815046e-14
7.639441527e-14
7.69922152e-14
7.730921767e-14
7.732271669e-14
7.701136788e-14
7.635697629e-14
7.534620926e-14
7.397211621e-14
7.22353691e-14
7.014515653e-14
6.771968101e-14
6.498620759e-14
6.198063722e-14
5.87465454e-14
5.533365184e-14
5.179569782e-14
4.818772681e-14
4.456285525e-14
4.09686698e-14
3.744352812e-14
3.401312538e-14
3.068780148e-14
2.746112004e-14
2.431024407e-14
2.119853798e-14
1.808065091e-14
1.491003016e-14
1.164844151e-14
8.276662313e-15
4.805086291e-15
1.282616245e-15
-2.197969405e-15
-5.50001204e-15
-8.449895137e-15
-1.085191637e-14
-1.25112804e-14
-1.326430348e-14
-1.301368597e-14
-1.17654442e-14
-9.662967105e-15
-7.012865916e-15
-4.296959838e-15
-2.165075444e-15
-1.404388411e-15
-2.882898274e-15
-7.467139308e-15
-1.591736134e-14
-2.876681818e-14
-4.61951859e-14
-6.79091435e-14
-9.304531346e-14
-1.20111764e-13
-1.469837389e-13
-1.70967341e-13
-1.889414818e-13
-1.975868374e-13
-1.937080073e-13
-1.746750037e-13
-1.389784036e-13
-8.694605099e-14
-2.090847633e-14
5.625121699e-14
1.043398274e-13
1.102056032e-13
1.156374884e-13
1.209794861e-13
1.263022774e-13
1.31612833e-13
1.368990545e-13
1.421522851e-13
1.473653055e-13
1.525333395e-13
1.576523088e-13
1.62717741e-13
1.677251439e-13
1.726691622e-13
1.775443327e-13
1.823452076e-13
1.870658329e-13
1.917001852e-13
1.962420317e-13
2.00685093e-13
2.050227541e-13
2.09247918e-13
2.133536481e-13
2.173324926e-13
2.211771182e-13
2.248791096e-13
2.284305695e-13
2.318227723e-13
2.350471682e-13
2.380941742e-13
2.409545234e-13
2.436180397e-13
2.460744641e-13
2.483130927e-13
2.503223912e-13
2.52090818e-13
2.536061789e-13
2.548554876e-13
2.558254975e-13
2.565023022e-13
2.568712096e-13
2.56916893e-13
2.566232361e-13
2.55973616e-13
2.549502085e-13
2.535344133e-13
2.517069347e-13
2.494471737e-13
2.467334246e-13
2.435431563e-13
2.398522525e-13
2.356355395e-13
2.308661514e-13
2.255160939e-13
2.195555168e-13
2.129528796e-13
2.05674762e-13
1.976858e-13
1.889486227e-13
1.794235686e-13
1.690683005e-13
1.578383099e-13
1.456858931e-13
1.325607512e-13
1.184090671e-13
1.031740524e-13
8.679485997e-14
6.920690105e-14
5.034162956e-14
3.01256402e-14
8.481162601e-15
-1.467481955e-14
-3.943055079e-14
-6.588051692e-14
-9.41247369e-14
-1.242704819e-13
-1.564313931e-13
-1.9072902e-13
-2.272925965e-13
-2.662600575e-13
-3.077781577e-13
-3.520032323e-13
-3.991020525e-13
-4.492514769e-13
-5.026407106e-13
-5.594703045e-13
-6.199542468e-13
-6.843197657e-13
-7.528083652e-13
-8.256771074e-13
-9.031988964e-13
-9.856634987e-13
-1.073378701e-12
-1.166670922e-12
-1.265886398e-12
-1.371392315e-12
-1.483577339e-12
-1.602853368e-12
-1.729656147e-12
-1.864446654e-12
-2.007712202e-12
-2.15996733e-12
-2.32175581e-12
-2.493650677e-12
-2.676256734e-12
-2.870211007e-12
-3.076183914e-12
-3.294881284e-12
-3.527045079e-12
-3.773454695e-12
-4.034928457e-12
-4.312324769e-12
-4.606543136e-12
-4.918525924e-12
-5.249258992e-12
-5.599773315e-12
-5.971145501e-12
-6.364500007e-12
-6.781008568e-12
-7.221892507e-12
-7.688422895e-12
-8.181921711e-12
-8.703762354e-12
-9.25537026e-12
-9.838223798e-12
-1.045385379e-11
-1.110384507e-11
-1.178983535e-11
-1.251351631e-11
-1.327663262e-11
-1.408098208e-11
-1.492841521e-11
-1.582083429e-11
-1.676019311e-11
-1.774849506e-11
-1.878779246e-11
-1.988018559e-11
-2.102782001e-11
-2.223288547e-11
-2.349761388e-11
-2.482427605e-11
-2.621518027e-11
-2.767266873e-11
-2.919911524e-11
-3.079692083e-11
-3.246851152e-11
-3.421633315e-11
-3.604284869e-11
-3.795053331e-11
-3.994186961e-11
-4.201934353e-11
-4.418543869e-11
-4.644263212e-11
-4.879338775e-11
-5.124015181e-11
-5.378534623e-11
-5.643136312e-11
-5.918055884e-11
-6.203524686e-11
-6.499769225e-11
-6.807010473e-11
-7.125463179e-11
-7.455335289e-11
-7.796827111e-11
-8.1501308e-11
-8.515429628e-11
-8.892897195e-11
-9.282696931e-11
-9.684981286e-11
-1.009989116e-10
-1.052755523e-10
-1.096808926e-10
-1.142159563e-10
-1.18881626e-10
-1.236786382e-10
-1.286075774e-10
-1.336688723e-10
-1.388627889e-10
-1.441894279e-10
-1.496487204e-10
-1.55240423e-10
-1.609641162e-10
-1.668192014e-10
-1.728048978e-10
-1.789202413e-10
-1.851640842e-10
-1.915350928e-10
-1.980317496e-10
-2.046523518e-10
-2.113950142e-10
-2.182576709e-10
-2.252380765e-10
-2.323338112e-10
-2.395422834e-10
-2.468607352e-10
-2.542862478e-10
-2.618157462e-10
-2.694460079e-10
-2.771736696e-10
-2.84995235e-10
-2.929070843e-10
-3.009054846e-10
-3.089865983e-10
-3.171464986e-10
-3.25381175e-10
-3.336865521e-10
-3.420585008e-10
-3.504928508e-10
-3.58985408e-10
-3.6753197e-10
-3.76128339e-10
-3.847703454e-10
-3.934538577e-10
-4.021748085e-10
-4.109292076e-10
-4.197131649e-10
-4.285229133e-10
-4.373548247e-10
-4.462054357e-10
-4.550714687e-10
-4.639498574e-10
-4.7283777e-10
-4.817326322e-10
-4.90632156e-10
-4.995343646e-10
-5.084376202e-10
-5.173406502e-10
-5.262425795e-10
-5.351429584e-10
-5.440417895e-10
-5.529395664e-10
-5.61837302e-10
-5.707365596e-10
-5.796394924e-10
-5.885488724e-10
-5.974681325e-10
-6.064014e-10
-6.153535362e-10
-6.243301771e-10
-6.333377708e-10
-6.423836206e-10
-6.514759295e-10
-6.606238435e-10
-6.698374947e-10
-6.791280501e-10
-6.885077624e-10
-6.979900118e-10
-7.075893602e-10
-7.173216106e-10
-7.272038441e-10
-7.372544888e-10
-7.474933728e-10
-7.579417754e-10
-7.686224897e-10
-7.795598862e-10
-7.907799712e-10
-8.023104435e-10
-8.141807724e-10
-8.26422245e-10
-8.39068025e-10
-8.52153207e-10
-8.657146013e-10
-8.797935736e-10
-8.943183897e-10
-9.094564717e-10
-9.253383251e-10
-9.421563168e-10
-9.596588217e-10
-9.778962325e-10
-9.969245886e-10
-1.016802417e-09
-1.037591403e-09
-1.059356363e-09
-1.082165367e-09
-1.106089887e-09
-1.131204894e-09
-1.15758847e-09
-1.185354654e-09
-1.2150564e-09
-1.246348111e-09
-1.279317441e-09
-1.31406268e-09
-1.350567133e-09
-1.388956773e-09
-1.42941995e-09
-1.472066901e-09
-1.517011645e-09
-1.564373133e-09
-1.614274895e-09
-1.666845075e-09
-1.722216586e-09
-1.780527246e-09
-1.841919926e-09
-1.906542764e-09
-1.974549294e-09
-2.046098663e-09
-2.121355838e-09
-2.20049179e-09
-2.283683741e-09
-2.371115414e-09
-2.462977271e-09
-2.559466823e-09
-2.660788895e-09
-2.767155996e-09
-2.878788616e-09
-2.995915641e-09
-3.118774728e-09
-3.24761274e-09
-3.382686219e-09
-3.524261862e-09
-3.672617074e-09
-3.828040525e-09
-3.990832769e-09
-4.161306891e-09
-4.339789247e-09
-4.52662019e-09
-4.722154923e-09
-4.926764381e-09
-5.140836189e-09
-5.364775761e-09
-5.599007387e-09
-5.843975587e-09
-6.10014648e-09
-6.368009428e-09
-6.64807877e-09
-6.940895982e-09
-7.247032002e-09
-7.567090084e-09
-7.901709084e-09
-8.251567505e-09
-8.617388324e-09
-8.999944959e-09
-9.400068618e-09
-9.818657501e-09
-1.02566884e-08
-1.07152313e-08
-1.119546806e-08
-1.169871617e-08
-1.222645934e-08
-1.278038682e-08
-1.336244391e-08
-1.397489754e-08
-1.46204208e-08
-1.530220254e-08
-1.602408939e-08
-1.679076993e-08
-1.760801364e-08
-1.848298102e-08
-1.942462623e-08
-2.044421974e-08
-2.155602704e-08
-2.277818986e-08
-2.413387033e-08
-2.565273641e-08
-2.737289025e-08
-2.934337138e-08
-3.162740522e-08
-3.430661886e-08
-3.74865106e-08
-4.130354545e-08
-4.593435758e-08
-5.160768439e-08
-5.86198382e-08
-6.735476172e-08
-7.831001858e-08
-9.213046903e-08
-1.096518914e-07
-1.319574745e-07
-1.604509613e-07
-1.96951322e-07
-2.438152675e-07
-3.040957387e-07
-3.817468746e-07
-4.818890099e-07
-6.111511577e-07
-7.781134909e-07
-9.938787819e-07
-1.272810111e-06
-1.633482775e-06
-2.099912066e-06
-2.703136019e-06
-3.483254691e-06
-4.492056101e-06
-5.79639545e-06
-7.48254063e-06
-9.661756223e-06
-1.247747283e-05
-1.611448348e-05
-2.081072848e-05
-2.687238016e-05
-3.469312833e-05
-4.47788019e-05
-5.77787562e-05
-7.452581748e-05
-9.608702152e-05
-0.0001238279281
-0.0001594939527
-0.0002053129438
-0.000264124175
-0.0003395400073
-0.0004361477342
-0.0005597605125
-0.0007177278035
-0.0009193172997
-0.001176181821
-0.001502925899
-0.001917787511
-0.002443450902
-0.003108000721
-0.003946035782
-0.004999935313
-0.006321277768
-0.007972386175
-0.01002795209
-0.01257667641
-0.0157227812
-0.01958727148
-0.02430870446
-0.03004320347
-0.03696338172
-0.04525579063
-0.0551164676
-0.0667441455
-0.08033070823
-0.0960485447
-0.1140345753
-0.1343709096
-0.1570623018
-0.1820109066
-0.2089890691
-0.2376112884
-0.2673068024
-0.29729449
-0.3265622634
-0.3538521296
-0.3776527672
-0.3961988812
-0.4074734569
-0.4092132887
-0.3988977052
-0.3737302181
-0.3305865181
-0.2659328973
-0.17571935
-0.0553816022
0.09948629856
0.2902396676
0.5367376888
0.8127323084
1.301992698
1.843583919
2.428208692
2.398491726
3.432956672
4.341752214
5.257886524
6.206030619
7.202338147
8.307553522
9.717347014
11.92675083
15.4006463
20.42260013
25.74438391
35.09388547
38.94725575
40.19484047
38.37110261
36.24806123
32.05923051
27.91199758
23.68330105
21.37839294
17.52138425
13.47014574
9.307874668
5.297355389
2.206968964
-0.199340752
-1.571672664
-2.360173987
-2.565061319
-2.399738911
-2.057891078
-1.666969924
-1.297083459
-0.9832643891
-0.7288629014
-0.5253635753
-0.3743933152
-0.2644312483
-0.1852872218
-0.1292840928
-0.09030444822
-0.06335456864
-0.0446605874
-0.03137213918
-0.02174363002
-0.01502269488
-0.01042661915
-0.007209935568
-0.004969992213
-0.003417105393
-0.002344378331
-0.001605472263
-0.00109726274
-0.0007489172007
-0.0005103422344
-0.0003472093435
-0.0002358366496
-0.0001599199059
-0.000108253564
-7.314836036e-05
-4.933577978e-05
-3.321125924e-05
-2.231235521e-05
-1.495931772e-05
-1.000816846e-05
-6.681059604e-06
-4.449978017e-06
-2.957126702e-06
-1.960493008e-06
-1.296691067e-06
-8.556354351e-07
-5.63306653e-07
-3.700429608e-07
-2.426001633e-07
-1.587767406e-07
-1.037824363e-07
-6.778965379e-08
-4.428587332e-08
-2.896748621e-08
-1.899884357e-08
-1.251714452e-08
-8.302442524e-09
-5.558295412e-09
-3.766374939e-09
-2.590386726e-09
-1.812776592e-09
-1.293173551e-09
-9.411996778e-10
-6.987449567e-10
-5.284563025e-10
-4.062916022e-10
-3.167226503e-10
-2.496571579e-10
-1.984715852e-10
-1.587586933e-10
-1.27532597e-10
-1.027254301e-10
-8.286897036e-11
-6.689304082e-11
-5.399733923e-11
-4.356928997e-11
-3.51306926e-11
-2.830240027e-11
-2.278033735e-11
-1.831871219e-11
-1.471786905e-11
-1.181520241e-11
-9.478156061e-12
-7.598694812e-12
-6.088857791e-12
-4.877136219e-12
-3.90549982e-12
-3.126945953e-12
-2.503477027e-12
-2.004432329e-12
-1.605114627e-12
-1.285662265e-12
-1.030125507e-12
-8.257124317e-13
-6.621750713e-13
-5.313111575e-13
-4.26560792e-13
-3.426807653e-13
-2.754821711e-13
-2.216194405e-13
-1.784210207e-13
-1.437536893e-13
-1.159139659e-13
-9.354130726e-14
-7.554877839e-14
-6.106772284e-14
-4.940362874e-14
-4.000093962e-14
-3.241500351e-14
-2.628971481e-14
-2.133969319e-14
-1.733607698e-14
-1.409519519e-14
-1.146953188e-14
-9.34051669e-15
-7.612767954e-15
-6.20949524e-15
-5.068824647e-15
-4.140859525e-15
-3.385328148e-15
-2.769699713e-15
-2.267674257e-15
-1.857971341e-15
-1.523357621e-15
-1.249865544e-15
-1.0261651e-15
-8.430582214e-16
-6.930715445e-16
-5.701281263e-16
-4.692825811e-16
-3.865072092e-16
-3.185191553e-16
-2.626406091e-16
-2.166856378e-16
-1.788685016e-16
-1.477293141e-16
-1.22073717e-16
-1.009238879e-16
-8.347872149e-17
-6.908143922e-17
-5.719322336e-17
-4.737173678e-17
-3.925361056e-17
-3.254015572e-17
-2.698569666e-17
-2.238803851e-17
-1.858067226e-17
-1.542639652e-17
-1.281209466e-17
-1.064445517e-17
-8.846462486e-18
-7.354517619e-18
-6.116074083e-18
-5.087695593e-18
-4.23345928e-18
-3.52364218e-18
-2.933640056e-18
-2.443076951e-18
-2.035071386e-18
-1.695631321e-18
-1.413154995e-18
-1.178018908e-18
-9.822375386e-19
-8.191821885e-19
-6.833485419e-19
-5.701644229e-19
-4.758307196e-19
-3.97189694e-19
-3.316159181e-19
-2.769259079e-19
-2.313032222e-19
-1.932363533e-19
-1.614672071e-19
-1.349483506e-19
-1.128075224e-19
-9.431816382e-20
-7.887493897e-20
-6.59733951e-20
-5.519305637e-20
-4.618336802e-20
-3.865200709e-20
-3.235515834e-20
-2.708942323e-20
-2.268508569e-20
-1.900050602e-20
-1.591745276e-20
-1.333721466e-20
-1.117736174e-20
-9.369046523e-21
-7.854754766e-21
-6.586430537e-21
-5.523912991e-21
-4.633632763e-21
-3.887524661e-21
-3.26212059e-21
-2.737792689e-21
-2.29812169e-21
-1.929369685e-21
-1.620039951e-21
-1.360509403e-21
-1.142721623e-21
-9.599304423e-22
-8.064857037e-22
-6.776542402e-22
-5.694702451e-22
-4.786101894e-22
-4.022882365e-22
-3.381687792e-22
-2.842932819e-22
-2.390190747e-22
-2.009681379e-22
-1.689842368e-22
-1.420970378e-22
-1.194920634e-22
-1.004855294e-22
-8.450326806e-23
-7.106306877e-23
-5.975987954e-23
-5.025340315e-23
-4.225769802e-23
-3.553245812e-23
-2.987569923e-23
-2.51176233e-23
-2.111547028e-23
-1.77491973e-23
-1.491785178e-23
-1.253652618e-23
-1.05338007e-23
-8.849595271e-24
-7.433365086e-24
-6.242584278e-24
-5.241471636e-24
-4.399919478e-24
-3.692593152e-24
-3.098173851e-24
-2.598721855e-24
-2.179140951e-24
-1.826727906e-24
-1.530793422e-24
-1.282343211e-24
-1.073809622e-24
-8.988257683e-25
-7.520354354e-25
-6.289330685e-25
-5.257290819e-25
-4.392364743e-25
-3.667753753e-25
-3.060926892e-25
-2.552944425e-25
-2.127888304e-25
-1.772382693e-25
-1.475190333e-25
-1.226872753e-25
-1.019504253e-25
-8.464311677e-26
-7.020692455e-26
-5.817331442e-26
-4.814929495e-26
-3.980534617e-26
-3.286526467e-26
-2.709762201e-26
-2.230858181e-26
-1.833586009e-26
-1.504364815e-26
-1.231834526e-26
-1.006497306e-26
-8.204163335e-27
-6.669628099e-27
-5.406035487e-27
-4.367226732e-27
-3.514719998e-27
-2.816455282e-27
-2.245741922e-27
-1.780376311e-27
-1.401902571e-27
-1.094993261e-27
-8.469308676e-28
-6.471738337e-28
-4.869935457e-28
-3.591707933e-28
-2.577421065e-28
-1.777878788e-28
-1.152554992e-28
-6.681178817e-29
-2.971997163e-29
-1.737168421e-30
1.897095899e-29
3.390121532e-29
4.427190768e-29
5.107187993e-29
5.510120588e-29
5.700492666e-29
5.730099354e-29
5.640338375e-29
5.464120223e-29
5.227444493e-29
4.950698904e-29
4.64972825e-29
4.336712415e-29
4.020886476e-29
3.70912994e-29
3.406447897e-29
3.116363027e-29
2.841234013e-29
2.582513472e-29
2.340956167e-29
2.11678641e-29
1.909832076e-29
1.719631371e-29
1.545517331e-29
1.386684264e-29
1.242239593e-29
1.111243811e-29
9.927409549e-30
8.85781444e-30
7.894388568e-30
7.028218466e-30
6.250823227e-30
5.55420622e-30
4.930884157e-30
4.373898488e-30
3.876813797e-30
3.433706426e-30
3.039146082e-30
2.688172808e-30
2.37627079e-30
2.099340273e-30
1.853668772e-30
1.635902518e-30
1.44301798e-30
1.272294703e-30
1.121289247e-30
9.87810395e-31
8.698964534e-31
7.657931767e-31
6.739340648e-31
5.929219734e-31
5.215120416e-31
4.585964132e-31
4.031901426e-31
3.544182808e-31
3.115043189e-31
2.737596165e-31
2.405740095e-31
2.114072057e-31
1.857811649e-31
1.632731903e-31
1.435097646e-31
1.261610448e-31
1.10935901e-31
9.757749883e-32
8.585943366e-32
7.558218516e-32
6.657004004e-32
5.866831815e-32
5.174090249e-32
4.566808268e-32
4.034462442e-32
3.567804088e-32
3.158710333e-32
2.800047218e-32
2.485553684e-32
2.209736965e-32
1.967778244e-32
1.755453348e-32
1.569059845e-32
1.405353836e-32
1.261494145e-32
1.134993073e-32
1.023672974e-32
9.256294712e-33
8.391943312e-33
7.629089845e-33
6.955000827e-33
6.358535752e-33
5.829963884e-33
5.360785564e-33
4.943574153e-33
4.571838086e-33
4.23991695e-33
3.942876483e-33
3.676405708e-33
3.436745375e-33
3.220617338e-33
3.025153883e-33
2.847862943e-33
2.686564951e-33
2.539366467e-33
2.404613895e-33
2.28086351e-33
2.166858701e-33
2.061498995e-33
1.963830118e-33
1.873015422e-33
1.788324341e-33
1.709122854e-33
1.634854237e-33
1.565029225e-33
1.499222801e-33
1.437061032e-33
1.378216946e-33
1.322404823e-33
1.269370428e-33
1.218891981e-33
1.170772168e-33
1.124836539e-33
1.080933391e-33
1.038923811e-33
9.986878123e-34
9.60114998e-34
9.231084332e-34
8.875788919e-34
8.534483903e-34
8.206447114e-34
7.891000098e-34
7.587560962e-34
7.295577654e-34
7.0145364e-34
6.743971e-34
6.483458982e-34
6.23257711e-34
5.990942874e-34
5.758213926e-34
5.534039022e-34
5.318115577e-34
5.110137834e-34
4.909824312e-34
4.716884331e-34
4.531061732e-34
4.35210625e-34
4.179780106e-34
4.013846841e-34
3.854085422e-34
3.700284126e-34
3.552241518e-34
3.409754778e-34
3.272633389e-34
3.140688789e-34
3.013739227e-34
2.8916118e-34
2.774138134e-34
2.661165929e-34
2.552529414e-34
2.448074731e-34
2.347648165e-34
2.25110728e-34
2.158317375e-34
2.069149559e-34
1.983470959e-34
1.901155225e-34
1.822073939e-34
1.746111836e-34
1.673160203e-34
1.603104631e-34
1.535835031e-34
1.471250882e-34
1.409254772e-34
1.349747977e-34
1.292638129e-34
1.237835953e-34
1.185252425e-34
1.13480475e-34
1.086410739e-34
1.039987334e-34
9.954651874e-35
9.527674231e-35
9.118235807e-35
8.725652468e-35
8.349287055e-35
7.988519735e-35
7.642694845e-35
7.311252929e-35
6.993622871e-35
6.689258091e-35
6.397622542e-35
6.118218429e-35
5.850580123e-35
5.594204814e-35
5.34864422e-35
5.113470043e-35
4.888256363e-35
4.672603441e-35
4.466116361e-35
4.268420321e-35
4.079162983e-35
3.897997525e-35
3.724587483e-35
3.558623558e-35
3.399804877e-35
3.247824146e-35
3.102395324e-35
2.963243138e-35
2.83010142e-35
2.702720982e-35
2.580868036e-35
2.464316866e-35
2.352822793e-35
2.246192044e-35
2.144209069e-35
2.046674152e-35
1.953398683e-35
1.86419004e-35
1.778872132e-35
1.697274143e-35
1.619225835e-35
1.544555297e-35
1.47309431e-35
1.404680492e-35
1.339136682e-35
1.276284688e-35
1.215920298e-35
1.157815056e-35
1.101715166e-35
1.047313921e-35
9.942448746e-36
9.420946882e-36
8.903661409e-36
8.3861188e-36
7.864948472e-36
7.34230998e-36
6.833218938e-36
6.382241279e-36
4.028091183e-36
2.798148976e-36
1.402254339e-36
6.877728036e-37
3.333843028e-37
1.595689509e-37
7.538776045e-38
3.512727346e-38
1.611784691e-38
7.277244889e-39
3.235079545e-39
1.402702168e-39
5.939756605e-40
2.440614792e-40
9.775355647e-41
3.675302272e-41
1.176277465e-41
4.11656828e-42
1.115156239e-42
8.166729902e-43
-4.510729236e-43
-1.137427811e-43
-6.35531762e-43
5.689702142e-44
-1.887030581e-43
-2.251203701e-44
3.551062218e-44
-4.085222727e-44
-2.542196635e-44
2.295403605e-45
-2.07551828e-44
-9.046833782e-45
-2.298964897e-44
5.41268129e-44
8.653070391e-44
4.534717041e-44
-3.559220222e-44
-4.216934417e-45
1.446746397e-44
-3.449438348e-47
-5.971707845e-44
-2.839642324e-44
-5.142192815e-45
-2.348091307e-44
-5.400815602e-44
-4.968621545e-44
5.135448341e-45
2.266808081e-44
-3.231123174e-44
-2.290688155e-44
-3.299512177e-45
-5.932990746e-44
-1.130624269e-45
2.518470312e-44
8.148006083e-44
-1.802637976e-43
-1.235780307e-43
1.66846353e-43
1.263157359e-45
-6.759212231e-46
-7.867154601e-44
-9.766210886e-46
3.950256624e-44
-4.12124747e-44
-4.866343257e-44
-6.715212813e-46
1.355731234e-44
-3.113100817e-46
3.385814739e-46
-1.887558408e-45
-3.774615142e-46
-1.812277827e-45
1.177863475e-44
2.184940752e-44
-7.704771403e-44
-3.54943199e-44
7.485251693e-44
-4.882785857e-44
4.361903979e-44
-1.586789282e-45
3.524843443e-44
8.797559892e-46
-5.913942227e-45
-9.534172272e-45
2.121051431e-44
-1.073254716e-44
7.650363997e-47
-1.108190121e-45
-4.980434317e-45
-1.453581191e-45
1.260961141e-44
3.458313151e-46
2.849840185e-45
5.686794715e-47
1.266715827e-45
2.691607904e-46
-1.250644033e-45
-1.285649945e-45
8.560824496e-48
2.006334221e-45
3.499973354e-47
-8.620328902e-46
9.806008658e-47
-1.043658003e-45
-1.00516136e-45
-6.650007189e-46
-1.301896532e-45
-2.259412854e-45
2.732435765e-45
5.016493197e-47
1.654959942e-46
2.424138961e-46
1.969302058e-47
1.070242167e-45
1.544440563e-47
8.149258807e-49
2.555365844e-46
6.289399039e-48
7.4366614e-46
2.885962983e-46
-5.248724844e-46
2.569141301e-46
-7.816696228e-46
1.022190564e-47
1.909100419e-46
-3.85496363e-48
-4.097088015e-46
3.226071365e-46
3.757961989e-48
-9.944737393e-47
-2.27436823e-49
-8.796232572e-46
7.670583424e-46
1.750324173e-47
-2.444140981e-46
4.61411222e-46
-4.893006024e-46
-1.635481968e-46
1.632669969e-45
3.417008078e-46
-1.38063117e-45
7.275564179e-48
-1.352339615e-45
5.718165419e-46
-3.123578701e-46
-4.072735656e-45
-5.349428527e-46
4.223955815e-45
1.404391528e-45
1.569694467e-45
1.556363721e-45
4.418903025e-47
-1.224076531e-45
-1.924856933e-45
-1.618402189e-45
-7.926593983e-46
8.647421837e-47
-1.577084193e-45
2.751806452e-45
-1.058711695e-45
2.541473647e-45
-1.13345388e-45
3.303061328e-45
3.586663027e-45
-1.330071255e-45
-2.319944521e-45
8.153119873e-48
-3.24104932e-47
-2.789433385e-46
2.808971814e-45
-1.32499623e-45
-1.723722793e-45
-1.1426892e-46
-3.439390584e-46
-7.85880485e-46
-3.558935676e-45
-1.340451785e-45
1.061068556e-45
2.349402983e-45
7.955962554e-46
1.790855332e-45
1.078002898e-46
-2.992172099e-46
2.850239505e-46
4.780669491e-45
-5.66938857e-46
1.041157016e-45
1.096684116e-47
9.080498028e-46
-6.036739347e-46
2.485857161e-45
1.493896815e-45
-3.846323087e-46
2.401056665e-45
1.526162267e-45
1.225600906e-45
-6.350253754e-46
6.707907123e-46
7.938856121e-46
-1.178959901e-45
-3.338979944e-46
-1.510023965e-45
3.797946632e-46
-6.63862631e-46
-1.202532542e-45
-1.596967097e-45
-4.406171347e-46
1.294150938e-45
3.758711381e-47
-2.092171468e-46
6.644676323e-46
1.295778619e-45
-1.315224838e-46
-1.609216704e-46
-1.331803037e-46
2.122696847e-45
1.43955965e-47
7.88107585e-46
4.824201998e-48
-6.884204102e-48
4.958261582e-46
2.497128213e-46
-3.587139438e-48
1.969112233e-46
-1.236038951e-46
6.324933564e-47
2.582096238e-46
2.469365057e-46
-9.103033126e-46
-2.550322087e-46
9.352545629e-48
-3.3561998e-50
5.393795245e-49
6.276664797e-46
1.200716525e-46
-1.589332847e-45
1.371324491e-46
-1.31747929e-46
-2.054925121e-46
-1.724948198e-47
-8.638955975e-46
-3.385267136e-48
-2.108922684e-49
9.237012325e-47
-5.93478628e-46
-1.079138144e-46
-1.334068068e-45
-2.328788309e-45
2.964505852e-46
-1.472698264e-46
)
;

boundaryField
{
    inlet
    {
        type            calculated;
        value           uniform 0;
    }
    outlet
    {
        type            calculated;
        value           uniform -1.47269829e-46;
    }
    wall
    {
        type            empty;
    }
}


// ************************************************************************* //
