/*--------------------------------*- C++ -*----------------------------------*\
  =========                 |
  \\      /  F ield         | OpenFOAM: The Open Source CFD Toolbox
   \\    /   O peration     | Website:  https://openfoam.org
    \\  /    A nd           | Version:  7
     \\/     M anipulation  |
\*---------------------------------------------------------------------------*/
FoamFile
{
    version     2.0;
    format      ascii;
    class       volScalarField;
    location    "0.000558243009";
    object      ddt0(rho,C4H7O);
}
// * * * * * * * * * * * * * * * * * * * * * * * * * * * * * * * * * * * * * //

dimensions      [1 -3 -1 0 0 0 0];

internalField   nonuniform List<scalar> 
1500
(
-7.395870806e-16
-2.235380648e-15
-3.3754626e-15
-3.433576128e-15
-2.652441095e-15
-1.666609054e-15
-8.971890796e-16
-4.388993937e-16
-2.147323844e-16
-1.219260245e-16
-8.953156954e-17
-8.094832918e-17
-8.045960769e-17
-8.224333035e-17
-8.434430992e-17
-8.6162927e-17
-8.752276681e-17
-8.837378728e-17
-8.870683603e-17
-8.852955952e-17
-8.786004047e-17
-8.672481778e-17
-8.515779794e-17
-8.319927975e-17
-8.089494764e-17
-7.829487378e-17
-7.545259969e-17
-7.24243512e-17
-6.926839939e-17
-6.604453882e-17
-6.281362161e-17
-5.963706654e-17
-5.657626114e-17
-5.369178848e-17
-5.104244284e-17
-4.868402937e-17
-4.666797672e-17
-4.503984374e-17
-4.383779844e-17
-4.309118619e-17
-4.281930232e-17
-4.303047521e-17
-4.372154454e-17
-4.487779038e-17
-4.647333155e-17
-4.847197647e-17
-5.082847362e-17
-5.349008171e-17
-5.639835937e-17
-5.949106781e-17
-6.270407867e-17
-6.597319512e-17
-6.923581048e-17
-7.243235211e-17
-7.550748108e-17
-7.841104264e-17
-8.109877568e-17
-8.353280426e-17
-8.568193822e-17
-8.752181022e-17
-8.903487211e-17
-9.021026622e-17
-9.104358304e-17
-9.153650625e-17
-9.169634788e-17
-9.153547289e-17
-9.107061973e-17
-9.032212882e-17
-8.931310137e-17
-8.80685202e-17
-8.661437161e-17
-8.49768132e-17
-8.318143205e-17
-8.125263477e-17
-7.92132028e-17
-7.708403194e-17
-7.488406355e-17
-7.263039627e-17
-7.033855462e-17
-6.802287864e-17
-6.569698952e-17
-6.337428346e-17
-6.106840601e-17
-5.879366281e-17
-5.656533283e-17
-5.439985784e-17
-5.231489467e-17
-5.032922615e-17
-4.846253786e-17
-4.67350761e-17
-4.516720907e-17
-4.37789182e-17
-4.25892481e-17
-4.161574645e-17
-4.08739218e-17
-4.037674847e-17
-4.013424117e-17
-4.015312093e-17
-4.043658549e-17
-4.098419466e-17
-4.179187197e-17
-4.285201868e-17
-4.415372938e-17
-4.568309261e-17
-4.74235556e-17
-4.935632959e-17
-5.146081066e-17
-5.371499354e-17
-5.609585856e-17
-5.857971714e-17
-6.114250728e-17
-6.376003835e-17
-6.640818842e-17
-6.906306605e-17
-7.170114807e-17
-7.429940983e-17
-7.683546089e-17
-7.928769831e-17
-8.163548381e-17
-8.385934652e-17
-8.59412067e-17
-8.786461123e-17
-8.961496828e-17
-9.117976526e-17
-9.254875517e-17
-9.371409732e-17
-9.467044301e-17
-9.541496048e-17
-9.594729953e-17
-9.62695009e-17
-9.638585983e-17
-9.630275721e-17
-9.602847211e-17
-9.55729896e-17
-9.494781554e-17
-9.416580649e-17
-9.324101711e-17
-9.218856441e-17
-9.102450001e-17
-8.976568106e-17
-8.842962456e-17
-8.703433049e-17
-8.559806074e-17
-8.413906123e-17
-8.267522452e-17
-8.122369174e-17
-7.980040389e-17
-7.841961836e-17
-7.709341564e-17
-7.583122474e-17
-7.463940181e-17
-7.352089688e-17
-7.247504313e-17
-7.149749575e-17
-7.058034436e-17
-6.971240749e-17
-6.887971225e-17
-6.806614182e-17
-6.725422861e-17
-6.642605129e-17
-6.556419024e-17
-6.465268421e-17
-6.367793019e-17
-6.2629468e-17
-6.150059729e-17
-6.028878036e-17
-5.899580362e-17
-5.762768016e-17
-5.619429845e-17
-5.470883972e-17
-5.318700423e-17
-5.164610359e-17
-5.010408807e-17
-4.85785824e-17
-4.708600601e-17
-4.564084816e-17
-4.425515151e-17
-4.293824409e-17
-4.169673337e-17
-4.053475494e-17
-3.945443992e-17
-3.845654842e-17
-3.754119804e-17
-3.670860798e-17
-3.595978e-17
-3.52970445e-17
-3.472441393e-17
-3.424771221e-17
-3.387446388e-17
-3.361355937e-17
-3.347472694e-17
-3.346786218e-17
-3.360227305e-17
-3.388590151e-17
-3.432457766e-17
-3.492135725e-17
-3.567598052e-17
-3.65844816e-17
-3.763897028e-17
-3.882760926e-17
-4.013479838e-17
-4.154159204e-17
-4.302636473e-17
-4.456573508e-17
-4.613575013e-17
-4.771329209e-17
-4.927764789e-17
-5.081212075e-17
-5.230552561e-17
-5.375336156e-17
-5.515842959e-17
-5.653066737e-17
-5.788601374e-17
-5.924419241e-17
-6.062543761e-17
-6.204634633e-17
-6.351522147e-17
-6.502745512e-17
-6.656165987e-17
-6.807733797e-17
-6.951488793e-17
-7.079862912e-17
-7.184328912e-17
-7.25640268e-17
-7.288959397e-17
-7.277770039e-17
-7.223109638e-17
-7.131239741e-17
-7.015532812e-17
-6.896992274e-17
-6.803936511e-17
-6.770661031e-17
-6.834974201e-17
-7.034611369e-17
-7.402668638e-17
-7.962345763e-17
-8.721434843e-17
-9.66712256e-17
-1.076176763e-16
-1.194035859e-16
-1.311033284e-16
-1.415435154e-16
-1.493647021e-16
-1.531206261e-16
-1.514172067e-16
-1.431020708e-16
-1.275023796e-16
-1.047356838e-16
-7.579508557e-17
-4.196203184e-17
-2.093226046e-17
-1.837116281e-17
-1.597987126e-17
-1.362442446e-17
-1.127690618e-17
-8.93456563e-18
-6.602335927e-18
-4.283580189e-18
-1.981152551e-18
3.030238969e-19
2.567246901e-18
4.809610697e-18
7.028199666e-18
9.220733498e-18
1.138489654e-17
1.351838908e-17
1.561869755e-17
1.768328321e-17
1.970952064e-17
2.16947691e-17
2.363624694e-17
2.553096861e-17
2.737602449e-17
2.916828723e-17
3.090468846e-17
3.258169647e-17
3.4196013e-17
3.574398849e-17
3.72220592e-17
3.862622207e-17
3.995262264e-17
4.119702273e-17
4.235516086e-17
4.342259579e-17
4.439453964e-17
4.526621758e-17
4.603258768e-17
4.668828209e-17
4.72278395e-17
4.76455329e-17
4.793531648e-17
4.809089309e-17
4.810564851e-17
4.797277692e-17
4.768498046e-17
4.723465655e-17
4.661393554e-17
4.581441869e-17
4.482726666e-17
4.364332453e-17
4.225279454e-17
4.064546883e-17
3.881045697e-17
3.67364348e-17
3.441133168e-17
3.182240683e-17
2.89561711e-17
2.579836355e-17
2.233392902e-17
1.854689917e-17
1.44202306e-17
9.936029317e-18
5.075110979e-18
-1.827321231e-19
-5.859126924e-18
-1.197687525e-17
-1.856042044e-17
-2.563570318e-17
-3.323024841e-17
-4.137355088e-17
-5.009685339e-17
-5.943352295e-17
-6.941903604e-17
-8.009141217e-17
-9.149089902e-17
-1.03660713e-16
-1.166466491e-16
-1.304977428e-16
-1.452661669e-16
-1.610076669e-16
-1.777816075e-16
-1.956512976e-16
-2.146843579e-16
-2.349525651e-16
-2.565328303e-16
-2.795067616e-16
-3.039615716e-16
-3.299899903e-16
-3.576907162e-16
-3.871689749e-16
-4.185366454e-16
-4.519127077e-16
-4.874237519e-16
-5.252042522e-16
-5.653970901e-16
-6.081540588e-16
-6.536361078e-16
-7.020141176e-16
-7.534691862e-16
-8.081932531e-16
-8.663895976e-16
-9.282732562e-16
-9.940719192e-16
-1.064025977e-15
-1.138389644e-15
-1.217431192e-15
-1.301433499e-15
-1.390694973e-15
-1.485529911e-15
-1.586269115e-15
-1.693260595e-15
-1.80687013e-15
-1.927481768e-15
-2.055498657e-15
-2.19134339e-15
-2.335458772e-15
-2.48830813e-15
-2.650376342e-15
-2.822169675e-15
-3.004216867e-15
-3.19706928e-15
-3.401301493e-15
-3.61751161e-15
-3.846321618e-15
-4.088377866e-15
-4.344350949e-15
-4.614936474e-15
-4.900854655e-15
-5.202850894e-15
-5.521695415e-15
-5.858183443e-15
-6.213135085e-15
-6.58739502e-15
-6.981832436e-15
-7.397340311e-15
-7.834835166e-15
-8.295256702e-15
-8.779566727e-15
-9.288748689e-15
-9.823806869e-15
-1.038576499e-14
-1.097566562e-14
-1.159456864e-14
-1.224355024e-14
-1.292370103e-14
-1.363612504e-14
-1.438193746e-14
-1.516226337e-14
-1.597823564e-14
-1.683099272e-14
-1.772167678e-14
-1.865143119e-14
-1.962139855e-14
-2.06327177e-14
-2.168652161e-14
-2.278393436e-14
-2.392606857e-14
-2.51140226e-14
-2.634887731e-14
-2.763169342e-14
-2.896350826e-14
-3.034533255e-14
-3.177814761e-14
-3.326290152e-14
-3.480050653e-14
-3.639183565e-14
-3.803771893e-14
-3.973894094e-14
-4.149623703e-14
-4.331029042e-14
-4.51817291e-14
-4.71111223e-14
-4.909897828e-14
-5.114574085e-14
-5.325178662e-14
-5.541742254e-14
-5.764288346e-14
-5.992832921e-14
-6.227384288e-14
-6.467942882e-14
-6.714501011e-14
-6.967042768e-14
-7.225543851e-14
-7.48997144e-14
-7.760284085e-14
-8.036431702e-14
-8.318355423e-14
-8.605987687e-14
-8.899252154e-14
-9.198063811e-14
-9.502329035e-14
-9.811945642e-14
-1.012680309e-13
-1.044678256e-13
-1.077175726e-13
-1.110159258e-13
-1.143614635e-13
-1.177526917e-13
-1.211880475e-13
-1.246659024e-13
-1.281845663e-13
-1.317422923e-13
-1.353372806e-13
-1.38967685e-13
-1.426316156e-13
-1.463271472e-13
-1.500523241e-13
-1.538051662e-13
-1.575836761e-13
-1.613858462e-13
-1.65209665e-13
-1.690531268e-13
-1.729142368e-13
-1.767910222e-13
-1.806815383e-13
-1.845838786e-13
-1.884961849e-13
-1.924166542e-13
-1.963435507e-13
-2.002752144e-13
-2.042100728e-13
-2.081466508e-13
-2.12083581e-13
-2.160196164e-13
-2.199536412e-13
-2.238846829e-13
-2.27811924e-13
-2.317347159e-13
-2.356525909e-13
-2.395652745e-13
-2.434727018e-13
-2.473750298e-13
-2.512726511e-13
-2.551662113e-13
-2.59056621e-13
-2.629450746e-13
-2.668330645e-13
-2.707223988e-13
-2.746152185e-13
-2.785140142e-13
-2.824216447e-13
-2.863413565e-13
-2.902768025e-13
-2.942320612e-13
-2.982116579e-13
-3.022205867e-13
-3.062643295e-13
-3.103488792e-13
-3.144807662e-13
-3.186670746e-13
-3.229154728e-13
-3.272342366e-13
-3.316322722e-13
-3.361191441e-13
-3.407051025e-13
-3.454011104e-13
-3.502188682e-13
-3.551708484e-13
-3.602703172e-13
-3.655313606e-13
-3.709689096e-13
-3.765986509e-13
-3.824382151e-13
-3.884561256e-13
-3.947248921e-13
-4.013009442e-13
-4.082675881e-13
-4.155152383e-13
-4.230656185e-13
-4.309428562e-13
-4.391721702e-13
-4.477801611e-13
-4.567947962e-13
-4.662454622e-13
-4.761630284e-13
-4.865798861e-13
-4.975297866e-13
-5.090621429e-13
-5.21416353e-13
-5.344427985e-13
-5.48179589e-13
-5.626692928e-13
-5.779048251e-13
-5.939408118e-13
-6.108587422e-13
-6.287063931e-13
-6.475332011e-13
-6.673907191e-13
-6.883324642e-13
-7.104139289e-13
-7.336926435e-13
-7.582282284e-13
-7.840824509e-13
-8.113193101e-13
-8.400050833e-13
-8.702084129e-13
-9.020003842e-13
-9.354545963e-13
-9.706472579e-13
-1.007657284e-12
-1.046566389e-12
-1.087459207e-12
-1.130423394e-12
-1.175549778e-12
-1.222932472e-12
-1.272669039e-12
-1.324860644e-12
-1.379612224e-12
-1.437032681e-12
-1.49723507e-12
-1.560336824e-12
-1.626459978e-12
-1.695731417e-12
-1.768283135e-12
-1.844252536e-12
-1.923782715e-12
-2.007022808e-12
-2.094128322e-12
-2.185261515e-12
-2.280591812e-12
-2.380296199e-12
-2.484559726e-12
-2.593575975e-12
-2.70754762e-12
-2.826686984e-12
-2.951216713e-12
-3.081370449e-12
-3.217393631e-12
-3.359544346e-12
-3.508094343e-12
-3.663330155e-12
-3.825554429e-12
-3.995087471e-12
-4.172269109e-12
-4.357460953e-12
-4.55104913e-12
-4.753447709e-12
-4.965102975e-12
-5.186498798e-12
-5.41816354e-12
-5.660678746e-12
-5.914690507e-12
-6.180923979e-12
-6.460202277e-12
-6.753471016e-12
-7.061830214e-12
-7.386575931e-12
-7.729254595e-12
-8.091733992e-12
-8.476296071e-12
-8.885758305e-12
-9.323632507e-12
-9.794332647e-12
-1.03034468e-11
-1.08580931e-11
-1.146738567e-11
-1.214304426e-11
-1.290019215e-11
-1.375840014e-11
-1.474305244e-11
-1.588713313e-11
-1.723356318e-11
-1.883825583e-11
-2.077411172e-11
-2.313624073e-11
-2.60487867e-11
-2.967384406e-11
-3.422310601e-11
-3.997307674e-11
-4.72849331e-11
-5.663045062e-11
-6.862583562e-11
-8.407586111e-11
-1.040314278e-10
-1.29864607e-10
-1.633664444e-10
-2.068743737e-10
-2.634381466e-10
-3.370358202e-10
-4.328547813e-10
-5.576572026e-10
-7.202550439e-10
-9.321270774e-10
-1.208219894e-09
-1.567987028e-09
-2.036736003e-09
-2.647373098e-09
-3.442661254e-09
-4.478139222e-09
-5.825891504e-09
-7.579411393e-09
-9.859865796e-09
-1.282415441e-08
-1.667526056e-08
-2.167552164e-08
-2.816360875e-08
-3.657620426e-08
-4.747560669e-08
-6.158478526e-08
-7.983175108e-08
-1.034055184e-07
-1.338263934e-07
-1.730338477e-07
-2.234957984e-07
-2.883436957e-07
-3.715383795e-07
-4.780721351e-07
-6.142128109e-07
-7.877947877e-07
-1.008563783e-06
-1.288576264e-06
-1.642655334e-06
-2.088896637e-06
-2.649207846e-06
-3.349852892e-06
-4.221934522e-06
-5.301729554e-06
-6.630725896e-06
-8.255168722e-06
-1.022487609e-05
-1.25910403e-05
-1.540259241e-05
-1.870018438e-05
-2.250537213e-05
-2.679952756e-05
-3.148255222e-05
-3.629838928e-05
-4.07198477e-05
-4.381001091e-05
-4.412653604e-05
-3.978790755e-05
-2.880583113e-05
-9.579647358e-06
1.907570865e-05
5.977902119e-05
0.0001219325062
0.0002285140424
0.0004097821421
0.0006643937125
0.0009219454508
0.00109023391
0.001146833989
0.001137997681
0.001110958613
0.0010860897
0.001067114081
0.00105276515
0.001041288436
0.001032554218
0.001025907092
0.001025057554
0.00102662097
0.001022957813
0.001003410384
0.0009729152456
0.0009238673771
0.0008481568713
0.0007420845031
0.0006070912954
0.0004692544354
0.0003397914583
0.0002272588331
0.0001428402508
7.879901642e-05
6.558809707e-05
4.450411488e-05
3.68148729e-05
3.684755754e-05
5.078987983e-05
5.570807401e-05
5.583412333e-05
4.738424536e-05
4.067810376e-05
2.054444938e-05
1.424709988e-06
-1.318448958e-05
-2.197060463e-05
-2.528409357e-05
-2.52316547e-05
-2.239798016e-05
-1.932096635e-05
-1.588498404e-05
-1.276537798e-05
-1.003157089e-05
-7.746487584e-06
-5.903198156e-06
-4.458017646e-06
-3.323845973e-06
-2.419705937e-06
-1.748416894e-06
-1.254048161e-06
-8.92419639e-07
-6.3201818e-07
-4.477308473e-07
-3.179602509e-07
-2.264829159e-07
-1.615314553e-07
-1.131349954e-07
-7.898978046e-08
-5.557751606e-08
-3.893396988e-08
-2.717663851e-08
-1.8916343e-08
-1.313777778e-08
-9.108619739e-09
-6.302727713e-09
-4.356871539e-09
-3.007785752e-09
-2.073783952e-09
-1.428013526e-09
-9.820974876e-10
-6.745713656e-10
-4.627513181e-10
-3.170355762e-10
-2.169213131e-10
-1.482257948e-10
-1.011497664e-10
-6.893142805e-11
-4.691078829e-11
-3.188033054e-11
-2.163510965e-11
-1.466132892e-11
-9.921032769e-12
-6.703497573e-12
-4.522716957e-12
-3.046796201e-12
-2.04940428e-12
-1.37640935e-12
-9.229981838e-13
-6.179972018e-13
-4.131492025e-13
-2.757837211e-13
-1.838155557e-13
-1.223392585e-13
-8.1312308e-14
-5.397309258e-14
-3.57823235e-14
-2.369680241e-14
-1.56801325e-14
-1.036798406e-14
-6.852804512e-15
-4.529424496e-15
-2.994511103e-15
-1.980933836e-15
-1.311706935e-15
-8.704297404e-16
-5.788183124e-16
-3.864595641e-16
-2.584094721e-16
-1.733052675e-16
-1.170636549e-16
-7.999829545e-17
-5.533987348e-17
-3.830274139e-17
-2.717532556e-17
-1.908160958e-17
-1.267438521e-17
-8.870138155e-18
-6.421615833e-18
-4.346638912e-18
-3.023368313e-18
-1.56681599e-18
-1.013286555e-18
-1.063060257e-18
-1.177678794e-18
-1.121844408e-18
-1.037630218e-18
-5.370390138e-19
-3.86156777e-19
-1.119474859e-19
-1.96574086e-20
-9.364019034e-20
-1.739259342e-19
-1.864554706e-19
-2.284103945e-19
1.188205117e-19
1.025592864e-20
-8.640969683e-20
-8.894151856e-20
-1.248921639e-19
-1.608780188e-19
-1.489529205e-19
-1.202405748e-19
-1.30636036e-19
-1.481669162e-19
-1.658910467e-19
-2.181980139e-19
-1.791568886e-19
-1.555409629e-19
-1.872056262e-19
-2.398802104e-19
-1.741764441e-19
-1.630168629e-19
-1.787916253e-19
-3.065572957e-20
-3.669426754e-20
-3.04880855e-20
-2.751821318e-20
-2.60568907e-20
-7.311148239e-20
-1.637779616e-19
-1.533062677e-19
-1.713002992e-19
-1.256264411e-19
-9.640912541e-20
-7.690332114e-20
-5.681717059e-20
-7.921665603e-20
-8.334350657e-20
-7.425969738e-20
-7.446086715e-20
-7.608732344e-20
-8.115895933e-20
1.002998247e-20
-4.910189508e-20
-1.220286521e-19
-1.195933724e-19
-1.549543372e-19
-9.069442297e-20
-5.740724777e-20
-6.986888837e-20
-2.175831287e-20
6.347611453e-20
3.523940543e-20
7.291930602e-21
-9.481932557e-21
3.729495599e-20
-6.5326827e-20
-1.478395611e-19
-2.7677899e-19
-2.73313033e-19
-1.869295385e-19
-9.014193499e-20
-1.080784798e-20
-1.748466397e-19
-1.241460194e-19
-6.902991958e-20
-4.709750454e-20
-4.372775646e-20
-5.914441264e-20
-8.716257305e-20
-1.500179776e-19
-1.512979998e-19
-1.37815266e-19
-1.306409994e-19
-1.19151927e-19
-1.257993889e-19
-7.659282818e-20
-7.795983e-20
-9.003132333e-20
-1.194061465e-19
-9.806025266e-20
-1.09765869e-19
-1.457944583e-19
-1.303368691e-19
-7.406664506e-20
-9.303515046e-20
-6.535333381e-20
-5.534996094e-20
-4.455228903e-20
-2.946244031e-20
-1.269991288e-20
-1.203400894e-22
1.111480275e-20
8.344463907e-20
1.143400536e-19
3.67793384e-20
1.879653476e-20
-1.521788752e-21
-2.571586229e-20
-6.572564041e-20
-8.576550644e-20
-2.792187102e-20
-5.730046888e-20
-3.050554417e-20
-3.629336192e-21
2.493046785e-20
8.131752486e-20
6.260318524e-20
5.622691636e-20
3.45406543e-20
2.273497978e-20
1.477963499e-20
9.437099594e-21
3.663816121e-21
2.749771139e-20
1.272020916e-20
-3.702768936e-22
-2.14917747e-20
-2.911472798e-20
-3.025550518e-20
-4.313505459e-20
-3.552355746e-20
-2.331395498e-20
-1.222337567e-20
1.123189418e-21
1.320225297e-20
3.361796663e-20
2.745437629e-20
2.774751885e-20
3.418498854e-20
1.299731519e-20
-8.808641305e-21
-3.828980492e-20
-2.748437211e-20
-2.355639264e-20
5.560265319e-21
-7.981655524e-21
-2.450414769e-20
-1.000728844e-20
4.836537392e-21
7.770191928e-21
1.094441003e-20
5.262387961e-21
-6.310931425e-21
-2.363228127e-20
-4.822226766e-20
-8.693197981e-20
-1.27737114e-19
-1.19351032e-19
-8.666496773e-20
-8.337491203e-20
-6.453433458e-20
-5.686249826e-20
-5.514842775e-20
-5.867664698e-20
-7.780773281e-20
-7.69127971e-20
-6.137123178e-20
-6.163687457e-20
-4.282827619e-20
-3.306027712e-20
-3.086470353e-20
-3.644226057e-20
-5.188540695e-20
-6.046165411e-20
-1.013301666e-19
-9.759110197e-20
-6.896514292e-20
-5.748062598e-20
-3.0123628e-20
-6.590284487e-21
2.011600742e-20
5.164415865e-20
5.38042563e-20
2.911173143e-20
1.121778586e-20
8.08589426e-22
-7.768623457e-21
-2.341513731e-20
-4.401042231e-20
-3.039899132e-20
-2.520214253e-20
-1.561979372e-20
-1.100599084e-20
-1.98892146e-20
-1.926376745e-20
-7.376021824e-21
4.647553557e-21
1.933474161e-20
1.150801904e-20
4.19316821e-21
4.562393192e-21
3.679084501e-21
1.49229262e-20
9.503241582e-21
-6.624471707e-22
-1.074792365e-20
-9.544991881e-21
-9.526298279e-21
-9.993936278e-21
-1.365684228e-20
-1.618479525e-20
-1.983695886e-20
-2.84965381e-20
-2.319068738e-20
-2.055399963e-20
-2.090550628e-20
-1.454509884e-20
-1.088978935e-20
1.310933699e-21
1.587593545e-20
6.388240078e-21
-3.351279123e-21
-1.319829899e-20
-2.56063274e-20
-1.460418931e-20
-4.387465077e-21
-5.226959711e-21
-7.331289753e-21
-8.211306199e-21
-1.231778602e-20
-2.963086931e-20
-1.74806105e-20
-1.668899568e-20
-2.069531136e-20
-2.190721775e-20
-1.018449606e-20
-2.355589706e-21
4.595462172e-22
5.620579529e-21
2.263701235e-21
-5.825622709e-21
-9.843798135e-21
-1.701755179e-20
-2.892394612e-20
-2.55958555e-20
-1.69857892e-20
-1.253845192e-20
-1.066318042e-20
-1.571316172e-20
-2.747316363e-20
-2.834032645e-20
-2.484385385e-20
-2.725456539e-20
-8.30436124e-21
-6.364254972e-21
-6.336155661e-21
-8.40335977e-21
-9.54788732e-21
-1.306216417e-20
-1.118257045e-21
-3.222464214e-22
9.878811386e-22
-5.324240138e-21
-1.144439897e-20
-1.40694687e-20
-7.716198234e-21
-2.620915018e-21
2.42181101e-21
6.055426843e-21
1.101767845e-20
9.303538717e-21
-7.45826847e-23
-1.067895729e-20
-1.799630762e-20
-3.155799461e-20
-4.030770478e-20
-4.840447776e-20
-4.977193231e-20
-3.553862854e-20
-2.844422255e-20
-2.078270476e-20
-1.562045435e-20
-1.285042949e-20
-8.611036885e-21
-5.897072516e-21
-3.995944225e-21
5.482369336e-21
1.300103649e-20
1.18282807e-20
1.07521609e-20
5.737681995e-21
3.171126798e-21
5.123852297e-21
1.045494976e-20
1.145067378e-20
8.985858676e-21
7.397670895e-21
7.939236313e-22
-5.320828073e-21
4.604280662e-21
3.456951036e-21
3.401830139e-21
1.169930876e-22
-2.949503148e-21
-8.237531868e-22
-1.569430931e-22
3.437479404e-22
-1.682640976e-21
-4.404273418e-21
-5.099731052e-21
-7.603219674e-21
-4.657024727e-21
5.582500024e-22
1.591899226e-21
2.823225549e-21
4.247570402e-22
-2.222503447e-21
-2.474920186e-21
1.222445894e-22
3.169060489e-21
7.541267971e-21
6.177148704e-21
7.667842928e-21
3.603310482e-21
6.475288356e-22
-1.484296265e-21
-2.58778922e-21
-3.965741612e-21
-9.146001916e-22
3.740192304e-21
3.353344282e-21
3.297079134e-22
1.148670343e-23
4.74746831e-22
1.461300677e-21
3.042022731e-21
6.769335691e-22
-2.415596611e-21
-6.533543864e-21
-1.398669754e-20
-1.672635357e-20
-8.763032421e-21
2.045387769e-21
4.866697041e-21
4.919259799e-21
4.621300015e-21
6.474288145e-21
5.883213683e-21
4.397957791e-22
-6.376807524e-21
-7.994827069e-21
-1.141820925e-20
-9.510773138e-21
-6.505561075e-21
-6.609982921e-21
-9.044879193e-21
-1.379732045e-20
-8.181561081e-21
-3.837843977e-21
5.144753567e-23
1.360120496e-21
1.256256361e-21
1.280346211e-21
3.157361879e-21
5.695979839e-21
9.360213842e-21
5.838124874e-21
1.757865902e-21
1.671813084e-21
-1.04053327e-21
-4.250068435e-21
-9.08039515e-21
-9.721646427e-21
-1.235922539e-20
-1.118295027e-20
-1.022735872e-20
-1.053639326e-20
-9.717131118e-21
-6.485359832e-21
-4.762605058e-21
-1.907089401e-21
5.503251006e-22
1.898570545e-21
1.779210092e-21
1.011870125e-21
3.949602124e-21
1.89955031e-21
1.940159381e-22
-1.110070389e-21
-1.717615791e-21
-4.26591658e-21
-5.402432455e-21
-3.787808316e-21
-1.369058682e-21
-1.677895076e-21
-1.040782526e-21
-2.174078387e-23
1.845452396e-22
4.202114472e-22
9.936686197e-22
1.138314957e-21
-2.489727542e-22
-1.885395268e-21
-3.114893858e-21
-1.451465986e-21
1.001171604e-21
3.630812928e-21
5.568162979e-21
3.875472224e-21
-2.241669951e-22
-2.804972043e-21
1.392048365e-22
-3.064114119e-21
-2.596159417e-21
-3.837953642e-21
-2.976841997e-21
-1.705035912e-21
-1.171799063e-21
-1.101477724e-21
-1.340802443e-21
-1.954948308e-21
-2.913100005e-21
-5.913015343e-21
-4.888994635e-21
-5.027152255e-21
-2.397367715e-21
-4.403089435e-22
1.504168927e-21
4.345552309e-22
-6.337072929e-22
-1.875418156e-21
-3.743145305e-21
-1.207341374e-21
1.069892165e-21
-2.073199921e-21
-2.690227475e-21
-1.966687302e-21
-1.399619482e-21
-2.06546477e-20
2.753238049e-21
2.672967229e-22
-2.467020873e-22
-2.501927817e-22
-3.11634434e-21
-1.092509924e-21
9.469107889e-21
3.463451366e-22
9.781396946e-23
5.711494113e-21
-5.296153612e-21
-1.268443273e-21
-2.09237936e-21
-4.005970105e-22
7.119442824e-22
-1.556770612e-21
-1.80187286e-23
1.324603682e-21
2.611029643e-21
-1.121803028e-21
2.672964826e-22
-1.114882891e-22
3.210780095e-22
-8.517711277e-23
1.837421985e-22
1.49943976e-22
-1.831963785e-22
-1.927781809e-22
-1.748095772e-23
-2.190044738e-24
2.645586568e-23
-2.421037667e-23
1.232400678e-22
3.54288036e-22
1.604442875e-22
-1.10692788e-22
-3.882521789e-23
2.982148142e-23
-9.010162304e-25
-1.870980985e-22
-9.540572639e-23
8.881475112e-24
-9.916630706e-23
-1.287471079e-22
-1.052574484e-22
1.024418507e-23
1.058452843e-22
-2.000362694e-23
-3.548352137e-24
2.961393246e-24
-1.68639065e-22
-1.337651483e-24
1.346687847e-22
1.639228078e-22
-2.521642386e-22
-1.417771358e-22
3.137323393e-22
1.463683246e-23
3.020026345e-25
-1.203679473e-22
-7.373892739e-25
7.703068386e-23
-2.849804261e-23
-7.501330677e-23
-1.247720003e-24
2.02099394e-23
-1.449375608e-24
6.617884522e-25
2.946134466e-26
-3.061933597e-25
-1.94564294e-24
6.044454987e-24
1.519195623e-23
-1.200701698e-22
-4.207544261e-23
1.198556391e-22
-7.23288172e-23
6.576693609e-23
1.690721756e-24
5.642590487e-23
1.460674391e-24
-5.725319284e-24
-4.790821944e-25
6.72293454e-23
-1.910905606e-23
1.480025019e-25
-2.00204214e-24
-7.870949823e-24
-1.859455246e-24
1.485747363e-23
4.010082175e-25
6.208864255e-24
9.255586419e-26
-4.745261483e-25
1.612982444e-26
-7.527531436e-25
-1.783501758e-24
3.096461854e-26
4.09442537e-24
6.527233746e-26
-1.34579776e-24
2.92682194e-25
-8.700452448e-25
-1.35034293e-24
-5.627875163e-25
-1.488943722e-24
-3.899871558e-24
4.832311059e-24
7.415697101e-26
2.119226441e-25
5.051276938e-25
2.220441468e-26
2.052384396e-24
2.846468158e-26
1.787855931e-27
3.890086469e-25
7.929542866e-27
7.790034799e-25
2.602620613e-25
-8.847115064e-25
3.740085378e-25
-1.062925091e-24
7.836851046e-28
-6.791565948e-26
3.070301665e-26
-3.672921223e-25
6.051624432e-25
7.61487417e-27
-2.334379395e-25
-9.887556579e-28
-7.452899922e-25
1.027946121e-24
2.073702556e-26
6.776748108e-25
4.867614557e-25
-1.170241123e-24
-4.436576867e-26
3.666667637e-24
5.586226258e-25
-2.55280364e-24
1.243646396e-26
-2.561256319e-24
7.346458589e-25
-1.186302584e-25
-4.168073464e-24
-3.713623191e-25
7.134318424e-24
1.080795755e-24
1.020954854e-24
2.017696588e-24
2.377418895e-26
-3.87848899e-25
-2.39631474e-24
-7.885702717e-26
-8.041974048e-25
7.104279156e-26
-1.268883588e-24
2.48102132e-24
-1.906859745e-24
3.919405558e-24
-2.143301912e-24
3.040806748e-24
6.049304329e-24
-2.707925363e-24
-2.603158464e-24
8.596625868e-27
-6.027787162e-25
-2.788119627e-25
4.576939615e-24
-1.987008572e-24
-2.931377537e-24
3.961553139e-27
1.109311946e-25
-8.88552586e-25
-4.680745828e-24
-2.507287594e-24
1.035407396e-24
3.03104648e-24
3.509609366e-25
4.04312114e-24
3.531844755e-25
-2.36741626e-24
-9.988635798e-26
7.178461549e-24
-2.454734937e-25
1.567358446e-24
3.834543474e-26
1.450263604e-24
-7.505888026e-25
3.590995293e-24
3.483591763e-24
-3.410633099e-25
3.025586871e-24
2.602065115e-24
5.798909972e-25
-1.237398183e-24
1.570725188e-24
-5.626171532e-25
-1.496197733e-24
-3.961320846e-25
-2.651632906e-24
1.011860066e-24
-1.482481529e-24
-5.871789928e-25
-7.288258041e-25
-3.253263883e-25
2.297789084e-24
-4.470704918e-26
-2.308109057e-25
2.266196139e-25
2.523783811e-24
-1.50623743e-25
-2.227215951e-25
-1.23872934e-25
3.364963714e-24
2.198488396e-26
8.977169388e-25
5.466630719e-27
-4.433533284e-27
8.978254601e-25
-5.073937691e-27
-3.506562293e-27
2.245129223e-25
-2.181981958e-25
-2.68197585e-26
3.992587467e-25
3.37618687e-25
-9.431081535e-25
-2.712047599e-25
2.333521722e-28
1.387283234e-28
8.549422089e-28
8.984301226e-25
1.667070838e-25
-2.46128583e-24
-3.352875277e-25
7.232035031e-28
-2.693416774e-25
9.080884546e-26
-1.226629111e-27
8.1099058e-28
-2.127242726e-28
2.175981851e-26
-8.58691102e-25
-1.480989332e-27
1.91373564e-25
-3.124427607e-24
4.766190465e-27
-2.034716639e-25
)
;

boundaryField
{
    inlet
    {
        type            calculated;
        value           uniform 0;
    }
    outlet
    {
        type            calculated;
        value           uniform -2.034716676e-25;
    }
    wall
    {
        type            empty;
    }
}


// ************************************************************************* //
