/*--------------------------------*- C++ -*----------------------------------*\
  =========                 |
  \\      /  F ield         | OpenFOAM: The Open Source CFD Toolbox
   \\    /   O peration     | Website:  https://openfoam.org
    \\  /    A nd           | Version:  7
     \\/     M anipulation  |
\*---------------------------------------------------------------------------*/
FoamFile
{
    version     2.0;
    format      ascii;
    class       volScalarField;
    location    "0.000558243009";
    object      ddt0(rho,CH2OH);
}
// * * * * * * * * * * * * * * * * * * * * * * * * * * * * * * * * * * * * * //

dimensions      [1 -3 -1 0 0 0 0];

internalField   nonuniform List<scalar> 
1500
(
-1.3586977e-31
-3.490791463e-31
-4.109254349e-31
-3.194975308e-31
-1.928305554e-31
-9.557443063e-32
-3.787633275e-32
-1.064311739e-32
-2.27708245e-33
-3.766636935e-33
-9.595542884e-33
-1.688751901e-32
-2.43102074e-32
-3.12435808e-32
-3.736732348e-32
-4.248048584e-32
-4.64443034e-32
-4.916757072e-32
-5.060308644e-32
-5.07455776e-32
-4.962821697e-32
-4.731778889e-32
-4.390916563e-32
-3.951960404e-32
-3.428318462e-32
-2.834555859e-32
-2.185906882e-32
-1.497830766e-32
-7.856183344e-33
-6.405992797e-34
6.528169596e-33
1.351933458e-32
2.021270365e-32
2.649911758e-32
3.228037498e-32
3.746886164e-32
4.198710952e-32
4.576749959e-32
4.87522644e-32
5.089387696e-32
5.215582983e-32
5.251373925e-32
5.195663139e-32
5.048823123e-32
4.812805709e-32
4.491213811e-32
4.0893207e-32
3.614026887e-32
3.073751086e-32
2.478257475e-32
1.838427266e-32
1.165986635e-32
4.732063911e-33
-2.274113315e-33
-9.234428631e-33
-1.602836381e-32
-2.254177344e-32
-2.866918863e-32
-3.431572318e-32
-3.939857284e-32
-4.384811589e-32
-4.760864711e-32
-5.063876711e-32
-5.291147522e-32
-5.44139788e-32
-5.514725309e-32
-5.512535185e-32
-5.437448598e-32
-5.293187282e-32
-5.084436098e-32
-4.816686149e-32
-4.496060874e-32
-4.129130676e-32
-3.722722358e-32
-3.283730973e-32
-2.818941885e-32
-2.334872363e-32
-1.83763908e-32
-1.33285802e-32
-8.25580494e-33
-3.202662016e-33
1.792074152e-33
6.695041295e-33
1.147761606e-32
1.611505504e-32
2.058553477e-32
2.486916927e-32
2.894708823e-32
3.280063946e-32
3.641076667e-32
3.975759783e-32
4.282026175e-32
4.557693297e-32
4.800508696e-32
5.00819437e-32
5.178506258e-32
5.309304736e-32
5.398631479e-32
5.444788409e-32
5.446413922e-32
5.402552431e-32
5.312713257e-32
5.176915957e-32
4.995719156e-32
4.770232513e-32
4.50211001e-32
4.193526245e-32
3.84713703e-32
3.466026817e-32
3.053646422e-32
2.613744984e-32
2.150299824e-32
1.667448532e-32
1.169425764e-32
6.605080525e-33
1.449672031e-33
-3.729665499e-33
-8.891333376e-33
-1.399465148e-32
-1.900003079e-32
-2.386912415e-32
-2.85649846e-32
-3.305225008e-32
-3.729737135e-32
-4.126888816e-32
-4.493774948e-32
-4.827766678e-32
-5.126547905e-32
-5.388150551e-32
-5.610985941e-32
-5.793869737e-32
-5.936038493e-32
-6.037156364e-32
-6.097311492e-32
-6.117002481e-32
-6.097116262e-32
-6.038899038e-32
-5.943922872e-32
-5.81405055e-32
-5.651401006e-32
-5.458317134e-32
-5.237338003e-32
-4.991175464e-32
-4.722694898e-32
-4.43489947e-32
-4.130915287e-32
-3.813975375e-32
-3.487399744e-32
-3.154568473e-32
-2.818886034e-32
-2.48373472e-32
-2.152416758e-32
-1.828085538e-32
-1.513667775e-32
-1.211779647e-32
-9.246410343e-33
-6.539929629e-33
-4.010241572e-33
-1.663122847e-33
5.021461837e-34
2.492911682e-33
4.322992419e-33
6.012215727e-33
7.585642463e-33
9.072499718e-33
1.050486089e-32
1.191612626e-32
1.333938439e-32
1.480573657e-32
1.634268637e-32
1.797268295e-32
1.971192234e-32
2.156947626e-32
2.354682716e-32
2.563783689e-32
2.782917165e-32
3.010115723e-32
3.242902116e-32
3.478442987e-32
3.713722307e-32
3.945721149e-32
4.171590279e-32
4.388802054e-32
4.595269668e-32
4.789423474e-32
4.970239442e-32
5.137217245e-32
5.290311319e-32
5.429822572e-32
5.556261664e-32
5.670198253e-32
5.772111511e-32
5.862256372e-32
5.940559015e-32
6.006550181e-32
6.059341839e-32
6.097647375e-32
6.119840863e-32
6.124048062e-32
6.108259106e-32
6.070452868e-32
6.008723807e-32
5.921404683e-32
5.807181734e-32
5.665201455e-32
5.495170367e-32
5.297449475e-32
5.073142879e-32
4.824176494e-32
4.553356995e-32
4.264395511e-32
3.961874747e-32
3.651136183e-32
3.338065133e-32
3.028758274e-32
2.729071093e-32
2.444060787e-32
2.177363049e-32
1.930563753e-32
1.702649726e-32
1.48963731e-32
1.284482912e-32
1.077371161e-32
8.564506558e-33
6.090461648e-33
3.233181595e-33
-9.726829084e-35
-3.940448321e-33
-8.264203243e-33
-1.294682744e-32
-1.776599836e-32
-2.239769477e-32
-2.642792256e-32
-2.937916196e-32
-3.075214124e-32
-3.008182509e-32
-2.700453764e-32
-2.133111382e-32
-1.311911652e-32
-2.735774939e-33
9.097357963e-33
2.128658359e-32
3.238225788e-32
4.063275595e-32
4.407758131e-32
4.067488975e-32
2.846684517e-32
5.783553499e-33
-2.843020958e-32
-7.431227935e-32
-1.007143602e-31
-1.062012088e-31
-1.106339459e-31
-1.147188919e-31
-1.187402878e-31
-1.227751415e-31
-1.268439875e-31
-1.309552778e-31
-1.351139092e-31
-1.393229337e-31
-1.435839701e-31
-1.478977292e-31
-1.522644198e-31
-1.566841059e-31
-1.611568461e-31
-1.656827713e-31
-1.702621369e-31
-1.748952931e-31
-1.795826772e-31
-1.843247914e-31
-1.891222101e-31
-1.93975586e-31
-1.988856136e-31
-2.038530709e-31
-2.08878788e-31
-2.139637191e-31
-2.19108859e-31
-2.243153228e-31
-2.29584295e-31
-2.349171033e-31
-2.403151472e-31
-2.457799745e-31
-2.513132391e-31
-2.569167285e-31
-2.62592392e-31
-2.683423005e-31
-2.741686902e-31
-2.800739783e-31
-2.86060739e-31
-2.921317351e-31
-2.982899323e-31
-3.045384988e-31
-3.108808229e-31
-3.173205058e-31
-3.238614092e-31
-3.305076409e-31
-3.372635595e-31
-3.441338187e-31
-3.511233657e-31
-3.582374359e-31
-3.654816062e-31
-3.728617754e-31
-3.803842118e-31
-3.880555317e-31
-3.958827527e-31
-4.038732948e-31
-4.120350042e-31
-4.203761683e-31
-4.28905531e-31
-4.376323223e-31
-4.465662917e-31
-4.55717693e-31
-4.650973547e-31
-4.747166602e-31
-4.845876126e-31
-4.947228158e-31
-5.051355533e-31
-5.158397806e-31
-5.268501529e-31
-5.381820905e-31
-5.498517637e-31
-5.618761588e-31
-5.742730909e-31
-5.870612763e-31
-6.002603067e-31
-6.13890764e-31
-6.279741829e-31
-6.425331559e-31
-6.575913365e-31
-6.731735129e-31
-6.893056319e-31
-7.060148598e-31
-7.233296484e-31
-7.412797332e-31
-7.598962832e-31
-7.792118613e-31
-7.992605658e-31
-8.20078041e-31
-8.417015573e-31
-8.641701112e-31
-8.875244658e-31
-9.118072353e-31
-9.370629817e-31
-9.633382791e-31
-9.906818152e-31
-1.019144492e-30
-1.048779491e-30
-1.079642418e-30
-1.111791381e-30
-1.145287115e-30
-1.180193098e-30
-1.216575657e-30
-1.254504142e-30
-1.294050992e-30
-1.335291946e-30
-1.37830615e-30
-1.423176293e-30
-1.469988823e-30
-1.518834074e-30
-1.569806441e-30
-1.623004578e-30
-1.678531578e-30
-1.736495152e-30
-1.797007872e-30
-1.860187342e-30
-1.926156451e-30
-1.995043552e-30
-2.066982786e-30
-2.142114203e-30
-2.220584114e-30
-2.302545298e-30
-2.388157288e-30
-2.477586633e-30
-2.571007177e-30
-2.668600375e-30
-2.770555517e-30
-2.877070128e-30
-2.988350175e-30
-3.104610462e-30
-3.226074881e-30
-3.352976765e-30
-3.485559218e-30
-3.624075424e-30
-3.768789008e-30
-3.919974311e-30
-4.077916758e-30
-4.242913227e-30
-4.415272299e-30
-4.595314644e-30
-4.783373355e-30
-4.979794191e-30
-5.184935979e-30
-5.399170866e-30
-5.622884674e-30
-5.856477101e-30
-6.100362106e-30
-6.354968061e-30
-6.620738113e-30
-6.89813037e-30
-7.187618096e-30
-7.489689973e-30
-7.80485022e-30
-8.133618852e-30
-8.476531702e-30
-8.834140658e-30
-9.207013668e-30
-9.595734857e-30
-1.00009046e-29
-1.042313946e-29
-1.086307227e-29
-1.132135205e-29
-1.179864393e-29
-1.229562918e-29
-1.281300488e-29
-1.335148399e-29
-1.391179512e-29
-1.449468222e-29
-1.510090458e-29
-1.573123638e-29
-1.638646659e-29
-1.706739867e-29
-1.777485015e-29
-1.850965254e-29
-1.927265091e-29
-2.006470353e-29
-2.08866817e-29
-2.173946939e-29
-2.262396288e-29
-2.35410706e-29
-2.449171292e-29
-2.547682174e-29
-2.649734053e-29
-2.755422416e-29
-2.864843879e-29
-2.978096183e-29
-3.095278227e-29
-3.216490052e-29
-3.341832902e-29
-3.471409236e-29
-3.605322799e-29
-3.743678685e-29
-3.886583409e-29
-4.034145023e-29
-4.186473213e-29
-4.343679464e-29
-4.505877208e-29
-4.673182e-29
-4.845711748e-29
-5.023586951e-29
-5.206930959e-29
-5.395870279e-29
-5.590534933e-29
-5.791058795e-29
-5.997580077e-29
-6.210241691e-29
-6.429191839e-29
-6.654584545e-29
-6.886580225e-29
-7.125346391e-29
-7.371058366e-29
-7.623900016e-29
-7.884064697e-29
-8.151756041e-29
-8.427189078e-29
-8.710591201e-29
-9.002203366e-29
-9.302281372e-29
-9.611097109e-29
-9.928940046e-29
-1.025611875e-28
-1.059296255e-28
-1.093982332e-28
-1.129707731e-28
-1.166512724e-28
-1.204440442e-28
-1.243537112e-28
-1.283852298e-28
-1.325439171e-28
-1.368354795e-28
-1.412660417e-28
-1.458421803e-28
-1.505709584e-28
-1.554599611e-28
-1.605173366e-28
-1.657518366e-28
-1.71172863e-28
-1.767905149e-28
-1.826156404e-28
-1.886598919e-28
-1.949357844e-28
-2.014567584e-28
-2.082372482e-28
-2.152927536e-28
-2.226399165e-28
-2.302966048e-28
-2.382820016e-28
-2.466166986e-28
-2.553227993e-28
-2.644240313e-28
-2.739458588e-28
-2.839156141e-28
-2.94362633e-28
-3.053183993e-28
-3.168167041e-28
-3.288938167e-28
-3.415886716e-28
-3.549430988e-28
-3.690022864e-28
-3.838165133e-28
-3.994499097e-28
-4.160246801e-28
-4.3392082e-28
-4.544642246e-28
-4.800360579e-28
-5.091611591e-28
-5.438943701e-28
-5.885327879e-28
-6.341342354e-28
-6.790581081e-28
-7.227379968e-28
-7.646572301e-28
-8.043164494e-28
-8.411906237e-28
-8.747047777e-28
-9.042648596e-28
-9.292987602e-28
-9.494889916e-28
-9.680801267e-28
-1.004073651e-27
-1.042932371e-27
-1.082947009e-27
-1.126243995e-27
-1.178412916e-27
-1.240581096e-27
-1.309787569e-27
-1.38457286e-27
-1.464784935e-27
-1.550705312e-27
-1.642750709e-27
-1.741398583e-27
-1.847173168e-27
-1.960645923e-27
-2.082439471e-27
-2.213232755e-27
-2.353766893e-27
-2.504851854e-27
-2.667373972e-27
-2.842304413e-27
-3.030708805e-27
-3.233758161e-27
-3.452741278e-27
-3.689078931e-27
-3.944340036e-27
-4.220260245e-27
-4.518763214e-27
-4.841985164e-27
-5.192303164e-27
-5.572367854e-27
-5.985141396e-27
-6.433941507e-27
-6.922492804e-27
-7.454986662e-27
-8.036151286e-27
-8.671333831e-27
-9.366597013e-27
-1.012883281e-26
-1.096589686e-26
-1.188676761e-26
-1.290173509e-26
-1.402262587e-26
-1.526307123e-26
-1.663882842e-26
-1.816816599e-26
-1.987232791e-26
-2.177609378e-26
-2.390845773e-26
-2.630345338e-26
-2.900115993e-26
-3.204893345e-26
-3.550291912e-26
-3.94299154e-26
-4.390968059e-26
-4.903779779e-26
-5.492924733e-26
-6.172287878e-26
-6.95870313e-26
-7.872662564e-26
-8.939214885e-26
-1.018910824e-25
-1.16602498e-25
-1.339957716e-25
-1.546546786e-25
-1.793085402e-25
-2.088726509e-25
-2.445009725e-25
-2.876551038e-25
-3.401949496e-25
-4.044984491e-25
-4.836204177e-25
-5.815043123e-25
-7.032660111e-25
-8.555761801e-25
-1.047178467e-24
-1.289596108e-24
-1.59810179e-24
-1.993058071e-24
-2.501783542e-24
-3.161170798e-24
-4.021388323e-24
-5.151157761e-24
-6.645339302e-24
-8.635925378e-24
-1.130810511e-23
-1.492392731e-23
-1.985742662e-23
-2.66471516e-23
-3.607526281e-23
-4.92874125e-23
-6.79755179e-23
-9.465794394e-23
-1.331111347e-22
-1.890375185e-22
-2.71103149e-22
-3.925555188e-22
-5.73753982e-22
-8.461388896e-22
-1.258473389e-21
-1.88668191e-21
-2.84939052e-21
-4.332521374e-21
-6.628286936e-21
-1.019712134e-20
-1.576620453e-20
-2.448645637e-20
-3.818310946e-20
-5.975630493e-20
-9.382263453e-20
-1.477444013e-19
-2.332840713e-19
-3.692690986e-19
-5.858936441e-19
-9.316794774e-19
-1.484770627e-18
-2.371319145e-18
-3.795532663e-18
-6.088981239e-18
-9.791666098e-18
-1.578543191e-17
-2.55146301e-17
-4.135365804e-17
-6.722186467e-17
-1.09616468e-16
-1.793566083e-16
-2.945450859e-16
-4.856284294e-16
-8.040970591e-16
-1.337547219e-15
-2.235943345e-15
-3.757772394e-15
-6.351836891e-15
-1.080350231e-14
-1.849870835e-14
-3.190535339e-14
-5.546032102e-14
-9.722152595e-14
-1.719776344e-13
-3.071670567e-13
-5.542498893e-13
-1.010761673e-12
-1.863372101e-12
-3.472372216e-12
-6.537832335e-12
-1.242629786e-11
-2.381156066e-11
-4.592615445e-11
-8.899254465e-11
-1.72918533e-10
-3.363152872e-10
-6.53738941e-10
-1.268571211e-09
-2.455762123e-09
-4.742160011e-09
-9.139787766e-09
-1.760614172e-08
-3.397559634e-08
-6.59060154e-08
-1.291033994e-07
-2.568536236e-07
-5.222176091e-07
-1.090156864e-06
-2.334993752e-06
-5.067488228e-06
-1.076884153e-05
-2.082097776e-05
-3.934093742e-05
-7.313589177e-05
-0.0001335065085
-0.0002383431791
-0.0004149301101
-0.0006983738069
-0.001139655008
-0.001788078653
-0.002686585988
-0.00357990373
-0.004719051325
-0.006080732686
-0.007541457461
-0.009408325347
-0.01247486048
-0.01760076178
-0.02567829328
-0.0384066114
-0.05835908646
-0.08650718626
-0.1334210712
-0.1827406499
-0.2406615793
-0.3022166181
-0.3814381777
-0.4240821013
-0.4319990988
-0.3783753499
-0.3151716007
-0.04413863672
0.3652002508
0.913101804
1.581399639
2.317491247
3.08588734
3.736711235
4.377120146
4.889863179
5.323139103
5.646521376
5.848810611
5.911052233
5.840947837
5.658572782
5.408794627
5.016536794
4.514416475
3.958212209
3.442446206
2.895166518
2.355509553
1.861619266
1.340118934
1.021110155
0.7632194149
0.5088794996
0.3240214962
0.1907113321
0.09509181383
0.02712785653
-0.02037150157
-0.05142371237
-0.07195934013
-0.08379116111
-0.08924831116
-0.09013940172
-0.08786179955
-0.08348456745
-0.07781394546
-0.07144692448
-0.06481557442
-0.05822397912
-0.05187704022
-0.0459056383
-0.04038566206
-0.03535305241
-0.03081549585
-0.02676136512
-0.02316645374
-0.01999895295
-0.0172230657
-0.01480156866
-0.01269757508
-0.010875698
-0.009302774466
-0.007948268003
-0.006784443651
-0.005786385711
-0.00493191042
-0.004201412134
-0.003577670982
-0.003045641879
-0.002592238741
-0.002206123197
-0.001877503792
-0.001597949237
-0.001360217558
-0.001158101783
-0.0009862919963
-0.0008402530602
-0.0007161169828
-0.0006105887314
-0.0005208642241
-0.0004445592294
-0.0003796479484
-0.0003244101292
-0.0002773856545
-0.0002373356374
-0.0002032091629
-0.0001741149073
-0.0001492969555
-0.0001281142259
-0.0001100229815
-9.456198195e-05
-8.133988547e-05
-7.002456847e-05
-6.033407561e-05
-5.202895456e-05
-4.490576596e-05
-3.879158962e-05
-3.353937472e-05
-2.902400466e-05
-2.513896657e-05
-2.179353248e-05
-1.891037324e-05
-1.642353818e-05
-1.427674419e-05
-1.242192636e-05
-1.081800968e-05
-9.429867851e-06
-8.227440134e-06
-7.184982071e-06
-6.280429378e-06
-5.494857657e-06
-4.812023249e-06
-4.217972823e-06
-3.700711183e-06
-3.249918469e-06
-2.856709234e-06
-2.51342708e-06
-2.213469463e-06
-1.95113815e-06
-1.721511474e-06
-1.520335161e-06
-1.343928909e-06
-1.189106437e-06
-1.053106987e-06
-9.335365618e-07
-8.283177226e-07
-7.356460739e-07
-6.539532847e-07
-5.81875081e-07
-5.182237758e-07
-4.619645866e-07
-4.121952337e-07
-3.681283527e-07
-3.290763116e-07
-2.944381013e-07
-2.636880079e-07
-2.363658127e-07
-2.1206831e-07
-1.904419621e-07
-1.711765344e-07
-1.539995711e-07
-1.386716058e-07
-1.249819957e-07
-1.127453023e-07
-1.017981454e-07
-9.199646326e-08
-8.321312512e-08
-7.533585292e-08
-6.826540362e-08
-6.191398681e-08
-5.620387933e-08
-5.106621758e-08
-4.643993854e-08
-4.227085119e-08
-3.851082662e-08
-3.511708596e-08
-3.205157522e-08
-2.928041728e-08
-2.677343074e-08
-2.450370452e-08
-2.2447228e-08
-2.058255808e-08
-1.88905335e-08
-1.735401779e-08
-1.595767515e-08
-1.468777032e-08
-1.353199303e-08
-1.247930384e-08
-1.151979202e-08
-1.064455795e-08
-9.845603535e-09
-9.115734717e-09
-8.44847789e-09
-7.838002512e-09
-7.279055127e-09
-6.766897352e-09
-6.297255435e-09
-5.866270377e-09
-5.470456228e-09
-5.106661647e-09
-4.77203627e-09
-4.464000723e-09
-4.180219105e-09
-3.918574667e-09
-3.677148967e-09
-3.454201492e-09
-3.248152715e-09
-3.057567898e-09
-2.881143398e-09
-2.717694569e-09
-2.566143289e-09
-2.425508631e-09
-2.294897119e-09
-2.173494756e-09
-2.060559544e-09
-1.95541462e-09
-1.857442127e-09
-1.766078134e-09
-1.680807462e-09
-1.601158956e-09
-1.526701445e-09
-1.457040783e-09
-1.391816115e-09
-1.330696109e-09
-1.273377576e-09
-1.219582114e-09
-1.169054619e-09
-1.121560313e-09
-1.076883649e-09
-1.034826361e-09
-9.952062482e-10
-9.578555005e-10
-9.226191266e-10
-8.893546584e-10
-8.579305952e-10
-8.282253787e-10
-8.001266621e-10
-7.735308482e-10
-7.483421812e-10
-7.244718542e-10
-7.018374557e-10
-6.803627029e-10
-6.599768225e-10
-6.40614231e-10
-6.222140636e-10
-6.047194314e-10
-5.880776091e-10
-5.722392995e-10
-5.571588106e-10
-5.427933854e-10
-5.291031405e-10
-5.160509049e-10
-5.036019035e-10
-4.917234701e-10
-4.80385223e-10
-4.695585265e-10
-4.592166573e-10
-4.493343865e-10
-4.398882208e-10
-4.308559694e-10
-4.222168427e-10
-4.139510844e-10
-4.060402578e-10
-3.984669349e-10
-3.912146739e-10
-3.842679395e-10
-3.776122245e-10
-3.712335554e-10
-3.651188461e-10
-3.592557525e-10
-3.536325076e-10
-3.482379489e-10
-3.430615179e-10
-3.380931573e-10
-3.333234874e-10
-3.287434511e-10
-3.243444476e-10
-3.201184053e-10
-3.160574609e-10
-3.121542554e-10
-3.08401767e-10
-3.047932437e-10
-3.013224011e-10
-2.979831044e-10
-2.947695261e-10
-2.916761152e-10
-2.886975683e-10
-2.858287906e-10
-2.830650161e-10
-2.804015925e-10
-2.778341615e-10
-2.753583649e-10
-2.729702835e-10
-2.706659443e-10
-2.684417075e-10
-2.662939825e-10
-2.642194308e-10
-2.62214777e-10
-2.602769316e-10
-2.584029e-10
-2.565897829e-10
-2.548348016e-10
-2.531353724e-10
-2.514889292e-10
-2.49892989e-10
-2.483452972e-10
-2.468436266e-10
-2.453858001e-10
-2.43969821e-10
-2.425936338e-10
-2.412553792e-10
-2.399532787e-10
-2.386855447e-10
-2.374505375e-10
-2.362466054e-10
-2.350721943e-10
-2.339258153e-10
-2.328060174e-10
-2.317114594e-10
-2.30640809e-10
-2.295927954e-10
-2.285661637e-10
-2.2755978e-10
-2.265725247e-10
-2.256032989e-10
-2.246509988e-10
-2.237146859e-10
-2.227934137e-10
-2.21886239e-10
-2.209922715e-10
-2.201106438e-10
-2.192405356e-10
-2.183811845e-10
-2.175317678e-10
-2.166915815e-10
-2.158599456e-10
-2.150361993e-10
-2.142196796e-10
-2.134097547e-10
-2.126058084e-10
-2.118072766e-10
-2.110136392e-10
-2.102243336e-10
-2.094388432e-10
-2.086566995e-10
-2.078773776e-10
-2.071004187e-10
-2.063254283e-10
-2.055519806e-10
-2.047796715e-10
-2.040080885e-10
-2.032368947e-10
-2.024657277e-10
-2.016942356e-10
-2.009220813e-10
-2.001489553e-10
-1.993745375e-10
-1.985985407e-10
-1.978207065e-10
-1.970406985e-10
-1.962583051e-10
-1.954732772e-10
-1.946853588e-10
-1.938944048e-10
-1.93100067e-10
-1.923021596e-10
-1.915004998e-10
-1.906949019e-10
-1.898851855e-10
-1.890712131e-10
-1.882527703e-10
-1.874297296e-10
-1.866018722e-10
-1.857690788e-10
-1.849311884e-10
-1.840880979e-10
-1.832396668e-10
-1.823857475e-10
-1.81526245e-10
-1.806610151e-10
-1.797899567e-10
-1.789129642e-10
-1.780299512e-10
-1.771408226e-10
-1.762455031e-10
-1.753438777e-10
-1.74435878e-10
-1.735214389e-10
-1.726004641e-10
-1.716729073e-10
-1.707386719e-10
-1.697977158e-10
-1.68849977e-10
-1.678954093e-10
-1.669339525e-10
-1.659655606e-10
-1.649902018e-10
-1.64007825e-10
-1.630183946e-10
-1.620218686e-10
-1.610182086e-10
-1.600073751e-10
-1.589893692e-10
-1.579641834e-10
-1.569317753e-10
-1.558921326e-10
-1.548452146e-10
-1.537910144e-10
-1.527295228e-10
-1.516607484e-10
-1.505846771e-10
-1.495013027e-10
-1.48410623e-10
-1.473126297e-10
-1.462073222e-10
-1.450947155e-10
-1.439748154e-10
-1.428476409e-10
-1.417132028e-10
-1.405714928e-10
-1.394225354e-10
-1.38266339e-10
-1.371029554e-10
-1.359323801e-10
-1.347546356e-10
-1.335697496e-10
-1.323777534e-10
-1.311786653e-10
-1.299725254e-10
-1.287593677e-10
-1.275392269e-10
-1.263121344e-10
-1.250781223e-10
-1.238372461e-10
-1.225895447e-10
-1.213350691e-10
-1.200738591e-10
-1.188059564e-10
-1.175314213e-10
-1.162502951e-10
-1.149626458e-10
-1.136685053e-10
-1.123679463e-10
-1.110610171e-10
-1.097477907e-10
-1.084283356e-10
-1.071027034e-10
-1.057709703e-10
-1.044331998e-10
-1.030894633e-10
-1.017398235e-10
-1.003843663e-10
-9.902316815e-11
-9.765629659e-11
-9.628384478e-11
-9.490587646e-11
-9.352247883e-11
-9.213373842e-11
-9.073975702e-11
-8.93406272e-11
-8.793643216e-11
-8.652725492e-11
-8.511320683e-11
-8.369437639e-11
-8.227086671e-11
-8.084277367e-11
-7.941020267e-11
-7.797325467e-11
-7.653203265e-11
-7.50866489e-11
-7.36372174e-11
-7.21838511e-11
-7.072665282e-11
-6.926575201e-11
-6.780126443e-11
-6.633331502e-11
-6.486203028e-11
-6.338752208e-11
-6.190991004e-11
-6.042932621e-11
-5.894589752e-11
-5.745977371e-11
-5.597108177e-11
-5.447994846e-11
-5.298651121e-11
-5.149091812e-11
-4.999330205e-11
-4.849380482e-11
-4.69925693e-11
-4.548974319e-11
-4.398547824e-11
-4.247992614e-11
-4.097323016e-11
-3.946554669e-11
-3.795704212e-11
-3.644785972e-11
-3.493816494e-11
-3.34281149e-11
-3.191787465e-11
-3.040759676e-11
-2.889744885e-11
-2.738760037e-11
-2.587822012e-11
-2.436947613e-11
-2.286153708e-11
-2.135457555e-11
-1.98487614e-11
-1.83442591e-11
-1.684124929e-11
-1.533991339e-11
-1.384042666e-11
-1.234296643e-11
-1.084770958e-11
-9.35484231e-12
-7.864542817e-12
-6.376985717e-12
-4.892355453e-12
-3.410834074e-12
-1.932605869e-12
-4.578536881e-13
1.013235818e-12
2.480474752e-12
3.943663682e-12
5.402606828e-12
6.857103267e-12
8.307003102e-12
9.751977714e-12
1.119184595e-11
1.262636935e-11
1.405527076e-11
1.547825207e-11
1.689499379e-11
1.830513644e-11
1.970827737e-11
2.110394249e-11
2.249158868e-11
2.387060677e-11
2.524030561e-11
2.659991562e-11
2.794856949e-11
2.928534001e-11
3.060916065e-11
3.19189585e-11
3.321332384e-11
3.449138981e-11
3.574934884e-11
3.69912954e-11
3.81996254e-11
3.939024433e-11
4.054015045e-11
4.163077657e-11
4.264518929e-11
4.362875229e-11
5.176946033e-11
7.002001652e-11
8.43740317e-11
9.663398135e-11
1.06778495e-10
1.148655462e-10
1.209804508e-10
1.2521483e-10
1.276696852e-10
1.284529044e-10
1.276775683e-10
1.254608228e-10
1.219227091e-10
1.171848545e-10
1.113695439e-10
1.04598719e-10
9.699318023e-11
8.867179957e-11
7.975082705e-11
7.034334454e-11
6.055875626e-11
5.050234102e-11
4.027490341e-11
2.997246407e-11
1.96859839e-11
9.501187903e-12
-5.016473499e-13
-1.024781989e-11
-1.966834041e-11
-2.870002881e-11
-3.728562423e-11
-4.537386094e-11
-5.291956443e-11
-5.988372314e-11
-6.623357468e-11
-7.194267743e-11
-7.699097966e-11
-8.136487751e-11
-8.505725414e-11
-8.806749562e-11
-9.040146794e-11
-9.207145008e-11
-9.309601036e-11
-9.349980925e-11
-9.331332819e-11
-9.257250771e-11
-9.131828267e-11
-8.95960266e-11
-8.745488977e-11
-8.494703964e-11
-8.212682467e-11
-7.904985516e-11
-7.577203771e-11
-7.234858793e-11
-6.883303029e-11
-6.5276246e-11
-6.172556937e-11
-5.822398741e-11
-5.480945426e-11
-5.151435728e-11
-4.836514452e-11
-4.538213279e-11
-4.257949631e-11
-3.996543692e-11
-3.754251637e-11
-3.530815019e-11
-3.325521805e-11
-3.13727791e-11
-2.964685173e-11
-2.806122631e-11
-2.659828189e-11
-2.523977191e-11
-2.396755393e-11
-2.276424126e-11
-2.161375831e-11
-2.050178837e-11
-1.941610619e-11
-1.834679879e-11
-1.728637171e-11
-1.622975637e-11
-1.517422235e-11
-1.411921563e-11
-1.306612818e-11
-1.201802622e-11
-1.097934088e-11
-9.9555428e-12
-8.952812543e-12
-7.977718655e-12
-7.036911824e-12
-6.13684684e-12
-5.283535612e-12
-4.482338374e-12
-3.73779442e-12
-3.053495909e-12
-2.432001818e-12
-1.874794078e-12
-1.382271287e-12
-9.537778261e-13
-5.876642208e-13
-2.813739465e-13
-3.155206027e-14
1.658297928e-13
3.153372356e-13
4.219310334e-13
4.908240535e-13
5.273417421e-13
5.36790394e-13
5.243365737e-13
4.949007327e-13
4.530668266e-13
4.03009945e-13
3.484418403e-13
2.925752462e-13
2.381057256e-13
1.872101553e-13
1.415603862e-13
1.023496381e-13
7.032994387e-14
4.585779943e-14
2.894586717e-14
1.931820747e-14
1.646677353e-14
1.970726519e-14
2.823236127e-14
4.116095956e-14
5.758226827e-14
7.659378898e-14
9.73330244e-14
1.190022591e-13
1.408869725e-13
1.623679265e-13
1.829276044e-13
2.021516657e-13
2.197261533e-13
2.3543134e-13
2.491330862e-13
2.607723345e-13
2.703537551e-13
2.779339824e-13
2.8361001e-13
2.875083173e-13
2.897749418e-13
2.905666156e-13
2.900433471e-13
2.883622395e-13
2.856725407e-13
2.821121456e-13
2.77804818e-13
2.728587295e-13
2.673655583e-13
2.614004816e-13
2.550225399e-13
2.48275652e-13
2.411898731e-13
2.337829893e-13
2.260623564e-13
2.180269674e-13
2.096695596e-13
2.009788967e-13
1.919420872e-13
1.82546779e-13
1.727833775e-13
1.626471396e-13
1.521399062e-13
1.412717233e-13
1.300620209e-13
1.185404465e-13
1.067472672e-13
9.473334842e-14
8.25596631e-14
7.029639028e-14
5.802168714e-14
4.582009908e-14
3.378068826e-14
2.199514362e-14
1.055561591e-14
-4.472527497e-16
-1.092628982e-14
-2.079961701e-14
-2.999216469e-14
-3.843700692e-14
-4.607637765e-14
-5.286240953e-14
-5.875761357e-14
-6.373507638e-14
-6.777854946e-14
-7.088222971e-14
-7.305056176e-14
-7.429792896e-14
-7.464825623e-14
-7.413468231e-14
-7.279924668e-14
-7.069248535e-14
-6.787319687e-14
-6.44081044e-14
-6.037151146e-14
-5.584486318e-14
-5.091629799e-14
-4.567998954e-14
-4.023538716e-14
-3.468619316e-14
-2.913926465e-14
-2.370326235e-14
-1.848710834e-14
-1.359832053e-14
-9.141204315e-15
-5.214991872e-15
-1.91194192e-15
6.845189896e-16
2.501564492e-15
3.478599499e-15
3.568639923e-15
2.739451111e-15
9.744462631e-16
-1.726868787e-15
-5.348664835e-15
-9.85904221e-15
-1.521051239e-14
-2.134093425e-14
-2.817471158e-14
-3.562423739e-14
-4.359165451e-14
-5.197073343e-14
-6.0648932e-14
-6.950952198e-14
-7.843372411e-14
-8.730284589e-14
-9.600033716e-14
-1.044136196e-13
-1.124358573e-13
-1.199673712e-13
-1.269168123e-13
-1.332020647e-13
-1.387507644e-13
-1.4350059e-13
-1.47399207e-13
-1.504041535e-13
-1.524824429e-13
-1.53610274e-13
-1.53772713e-13
-1.529634069e-13
-1.511841254e-13
-1.484441074e-13
-1.447587245e-13
-1.401472696e-13
-1.346301417e-13
-1.282258944e-13
-1.209481415e-13
-1.128191175e-13
-1.038751545e-13
)
;

boundaryField
{
    inlet
    {
        type            calculated;
        value           uniform 0;
    }
    outlet
    {
        type            calculated;
        value           uniform -9.745863775e-14;
    }
    wall
    {
        type            empty;
    }
}


// ************************************************************************* //
