/*--------------------------------*- C++ -*----------------------------------*\
  =========                 |
  \\      /  F ield         | OpenFOAM: The Open Source CFD Toolbox
   \\    /   O peration     | Website:  https://openfoam.org
    \\  /    A nd           | Version:  7
     \\/     M anipulation  |
\*---------------------------------------------------------------------------*/
FoamFile
{
    version     2.0;
    format      ascii;
    class       volScalarField;
    location    "0.000558243009";
    object      ddt0(rho,NC3H7COCH3);
}
// * * * * * * * * * * * * * * * * * * * * * * * * * * * * * * * * * * * * * //

dimensions      [1 -3 -1 0 0 0 0];

internalField   nonuniform List<scalar> 
1500
(
-6.799218616e-16
-2.04365236e-15
-3.067376836e-15
-3.095974875e-15
-2.364389803e-15
-1.45627585e-15
-7.527731845e-16
-3.359039973e-16
-1.328726715e-16
-4.916194617e-17
-2.008579848e-17
-1.246083097e-17
-1.210000044e-17
-1.376755878e-17
-1.57096701e-17
-1.738868416e-17
-1.864566039e-17
-1.943497885e-17
-1.974817095e-17
-1.959235048e-17
-1.898436117e-17
-1.794882938e-17
-1.651706325e-17
-1.472611823e-17
-1.261788796e-17
-1.023823255e-17
-7.636184339e-18
-4.863262894e-18
-1.972903988e-18
9.800223144e-19
3.939654546e-18
6.849609919e-18
9.653549773e-18
1.229589935e-17
1.472275296e-17
1.688297122e-17
1.872944601e-17
2.022046163e-17
2.132108151e-17
2.200445495e-17
2.225293834e-17
2.205893369e-17
2.142536586e-17
2.036574703e-17
1.890381052e-17
1.707273014e-17
1.491397273e-17
1.247585856e-17
9.811920757e-18
6.979162507e-18
4.036309991e-18
1.042145741e-18
-1.946008703e-18
-4.873613125e-18
-7.69000556e-18
-1.034927079e-17
-1.281088892e-17
-1.50401845e-17
-1.700860126e-17
-1.869382739e-17
-2.007979235e-17
-2.115654939e-17
-2.192005399e-17
-2.237183925e-17
-2.251859072e-17
-2.237161988e-17
-2.194624248e-17
-2.126107248e-17
-2.033725246e-17
-1.919764886e-17
-1.786604867e-17
-1.636639769e-17
-1.472212174e-17
-1.295556856e-17
-1.108760079e-17
-9.137357622e-18
-7.12219162e-18
-5.057770926e-18
-2.958324785e-18
-8.370000133e-19
1.293713269e-18
3.421529876e-18
5.533935878e-18
7.617812947e-18
9.659152135e-18
1.164288081e-17
1.35528153e-17
1.537174277e-17
1.708162582e-17
1.866391593e-17
2.009995514e-17
2.137144217e-17
2.246093585e-17
2.335236812e-17
2.403154042e-17
2.44865769e-17
2.470831393e-17
2.46906058e-17
2.443053469e-17
2.392851551e-17
2.318829403e-17
2.221684222e-17
2.102416046e-17
1.962300184e-17
1.802853777e-17
1.625798639e-17
1.433022674e-17
1.226541956e-17
1.008465239e-17
7.809623125e-18
5.462369107e-18
3.065043041e-18
6.397322496e-19
-1.791689225e-18
-4.207686513e-18
-6.58718278e-18
-8.909683089e-18
-1.115541408e-17
-1.330548585e-17
-1.534207688e-17
-1.724863873e-17
-1.901011102e-17
-2.061313618e-17
-2.204625896e-17
-2.330009694e-17
-2.436746949e-17
-2.524347655e-17
-2.592552167e-17
-2.641327995e-17
-2.670861552e-17
-2.681545689e-17
-2.67396427e-17
-2.648875022e-17
-2.607191973e-17
-2.549968486e-17
-2.47838169e-17
-2.393718497e-17
-2.297363152e-17
-2.190785521e-17
-2.075529242e-17
-1.953198358e-17
-1.825441108e-17
-1.693929648e-17
-1.560334614e-17
-1.4262942e-17
-1.293377728e-17
-1.163044556e-17
-1.036599836e-17
-9.151493512e-18
-7.995561004e-18
-6.904017319e-18
-5.879560562e-18
-4.921577807e-18
-4.026089195e-18
-3.185851203e-18
-2.390626199e-18
-1.627621806e-18
-8.82083655e-19
-1.380215839e-19
6.209692507e-19
1.410833647e-18
2.246180665e-18
3.139459883e-18
4.100243237e-18
5.134660239e-18
6.24502928e-18
7.429709897e-18
8.683191985e-18
9.996417405e-18
1.135731335e-17
1.275150068e-17
1.416312483e-17
1.557574615e-17
1.697322273e-17
1.834051562e-17
1.966435243e-17
2.093370021e-17
2.214001079e-17
2.327722618e-17
2.434155115e-17
2.53310253e-17
2.62449434e-17
2.708318858e-17
2.784555141e-17
2.853110687e-17
2.913771484e-17
2.9661697e-17
3.009771902e-17
3.043889252e-17
3.067708227e-17
3.080338998e-17
3.080876859e-17
3.068471353e-17
3.042397519e-17
3.002124121e-17
2.94737422e-17
2.878174588e-17
2.794891339e-17
2.698249743e-17
2.589336156e-17
2.469581033e-17
2.340720611e-17
2.204735943e-17
2.063768316e-17
1.920010907e-17
1.775580104e-17
1.632371971e-17
1.491914845e-17
1.355232533e-17
1.222737024e-17
1.094171865e-17
9.686271291e-18
8.44643093e-18
7.204127784e-18
5.940813231e-18
4.64125307e-18
3.297788146e-18
1.914559798e-18
5.11053037e-19
-8.757651482e-19
-2.191443949e-18
-3.366806929e-18
-4.32387768e-18
-4.985041191e-18
-5.285078648e-18
-5.185221636e-18
-4.687867282e-18
-3.850148081e-18
-2.794231367e-18
-1.712095105e-18
-8.62658752e-19
-5.595676223e-19
-1.148670891e-18
-2.975233851e-18
-6.34217343e-18
-1.146196134e-17
-1.840618842e-17
-2.705798243e-17
-3.707333423e-17
-4.785778402e-17
-5.856469411e-17
-6.812051987e-17
-7.528100806e-17
-7.872134424e-17
-7.716186314e-17
-6.953906525e-17
-5.52220747e-17
-3.430512503e-17
-7.713201449e-18
2.331721782e-17
4.264744176e-17
4.499129318e-17
4.71902883e-17
4.935928793e-17
5.152156961e-17
5.367893262e-17
5.582681075e-17
5.796236116e-17
6.008321892e-17
6.218777288e-17
6.427452061e-17
6.634172324e-17
6.838762021e-17
7.041012279e-17
7.240711979e-17
7.437652227e-17
7.631605e-17
7.822340209e-17
8.009620025e-17
8.193205412e-17
8.372844673e-17
8.548267717e-17
8.71921171e-17
8.88539423e-17
9.046538625e-17
9.202326224e-17
9.352460195e-17
9.496612038e-17
9.634461677e-17
9.765649434e-17
9.889829925e-17
1.00066234e-16
1.011564883e-16
1.021650965e-16
1.03087786e-16
1.039203073e-16
1.04658179e-16
1.052966349e-16
1.058308382e-16
1.062557255e-16
1.065659594e-16
1.06755992e-16
1.06820007e-16
1.067520358e-16
1.065456851e-16
1.061943105e-16
1.056910534e-16
1.050286035e-16
1.04199283e-16
1.031951635e-16
1.020077698e-16
1.006282964e-16
9.904736118e-17
9.725523693e-17
9.524156916e-17
9.299544981e-17
9.050534967e-17
8.775910168e-17
8.47438846e-17
8.144611889e-17
7.785132328e-17
7.39443251e-17
6.970886264e-17
6.512783473e-17
6.01829431e-17
5.48549212e-17
4.912311186e-17
4.296560406e-17
3.63591579e-17
2.927885593e-17
2.169831017e-17
1.358932115e-17
4.921894534e-18
-4.336153553e-18
-1.42189066e-17
-2.476302507e-17
-3.600738917e-17
-4.799370689e-17
-6.076642168e-17
-7.437311586e-17
-8.886455892e-17
-1.042950132e-16
-1.2072258e-16
-1.382090697e-16
-1.568209127e-16
-1.76628776e-16
-1.977084156e-16
-2.20140621e-16
-2.440116559e-16
-2.694138019e-16
-2.964455099e-16
-3.25211852e-16
-3.558250317e-16
-3.884046878e-16
-4.230784286e-16
-4.599823573e-16
-4.992613653e-16
-5.410699157e-16
-5.855723903e-16
-6.329437492e-16
-6.833700856e-16
-7.370491131e-16
-7.941911e-16
-8.550190348e-16
-9.197697842e-16
-9.886944489e-16
-1.062059013e-15
-1.140145349e-15
-1.223251709e-15
-1.311693474e-15
-1.405803975e-15
-1.505935203e-15
-1.612458474e-15
-1.725765399e-15
-1.846268419e-15
-1.974401745e-15
-2.110621865e-15
-2.255408742e-15
-2.409265905e-15
-2.572721706e-15
-2.746329711e-15
-2.930669515e-15
-3.126347284e-15
-3.333996358e-15
-3.554277953e-15
-3.787881329e-15
-4.035524753e-15
-4.297955388e-15
-4.57595009e-15
-4.870315313e-15
-5.181887516e-15
-5.51153328e-15
-5.860149243e-15
-6.228662241e-15
-6.618028828e-15
-7.029235217e-15
-7.463297086e-15
-7.921258709e-15
-8.404192625e-15
-8.91319895e-15
-9.449404149e-15
-1.001396046e-14
-1.060804447e-14
-1.123285612e-14
-1.188961688e-14
-1.257956858e-14
-1.330397126e-14
-1.406410171e-14
-1.486125121e-14
-1.569672321e-14
-1.657183125e-14
-1.748789617e-14
-1.844624382e-14
-1.94482018e-14
-2.04950969e-14
-2.158825173e-14
-2.272898159e-14
-2.391859127e-14
-2.515837117e-14
-2.644959409e-14
-2.779351138e-14
-2.919134902e-14
-3.064430409e-14
-3.215354023e-14
-3.372018424e-14
-3.534532184e-14
-3.702999317e-14
-3.877518934e-14
-4.058184779e-14
-4.245084854e-14
-4.43830101e-14
-4.637908505e-14
-4.843975683e-14
-5.056563538e-14
-5.27572534e-14
-5.501506299e-14
-5.733943222e-14
-5.97306414e-14
-6.218888038e-14
-6.471424573e-14
-6.730673741e-14
-6.9966257e-14
-7.269260527e-14
-7.548548013e-14
-7.834447491e-14
-8.126907771e-14
-8.425866934e-14
-8.73125237e-14
-9.042980659e-14
-9.360957635e-14
-9.685078417e-14
-1.001522745e-13
-1.035127867e-13
-1.069309561e-13
-1.104053169e-13
-1.139343036e-13
-1.175162541e-13
-1.211494132e-13
-1.24831936e-13
-1.285618921e-13
-1.323372695e-13
-1.361559807e-13
-1.400158661e-13
-1.439147025e-13
-1.478502057e-13
-1.518200398e-13
-1.558218232e-13
-1.598531352e-13
-1.639115244e-13
-1.679945168e-13
-1.720996231e-13
-1.762243493e-13
-1.803662033e-13
-1.845227067e-13
-1.886914027e-13
-1.928698669e-13
-1.970557187e-13
-2.0124663e-13
-2.054403374e-13
-2.096346531e-13
-2.138274773e-13
-2.180168095e-13
-2.222007605e-13
-2.263775655e-13
-2.305455972e-13
-2.347033786e-13
-2.388495964e-13
-2.429831158e-13
-2.471029949e-13
-2.512084971e-13
-2.552991097e-13
-2.59374558e-13
-2.634348199e-13
-2.674801453e-13
-2.715110696e-13
-2.755284346e-13
-2.795334046e-13
-2.835274856e-13
-2.875125452e-13
-2.914908312e-13
-2.95464993e-13
-2.994381033e-13
-3.0341368e-13
-3.07395708e-13
-3.113886641e-13
-3.153975422e-13
-3.194278756e-13
-3.234857652e-13
-3.275779092e-13
-3.317116247e-13
-3.358948825e-13
-3.40136336e-13
-3.444453492e-13
-3.488320306e-13
-3.533072675e-13
-3.578827582e-13
-3.62571045e-13
-3.673855556e-13
-3.723406328e-13
-3.774515687e-13
-3.827346384e-13
-3.882070225e-13
-3.938879395e-13
-3.997465569e-13
-4.058587776e-13
-4.122840995e-13
-4.191097492e-13
-4.262252565e-13
-4.336552165e-13
-4.414267778e-13
-4.495684068e-13
-4.581102033e-13
-4.670838944e-13
-4.765228954e-13
-4.864623897e-13
-4.969393767e-13
-5.079925197e-13
-5.196769149e-13
-5.32242443e-13
-5.455406508e-13
-5.596160472e-13
-5.745177619e-13
-5.902445372e-13
-6.068586626e-13
-6.244500905e-13
-6.430746714e-13
-6.627903742e-13
-6.83657678e-13
-7.057394342e-13
-7.291008879e-13
-7.538097481e-13
-7.799362472e-13
-8.075532039e-13
-8.367361151e-13
-8.675632065e-13
-9.001155267e-13
-9.344770318e-13
-9.707346628e-13
-1.00897845e-12
-1.04930162e-12
-1.091800697e-12
-1.136575637e-12
-1.183729946e-12
-1.233370846e-12
-1.285609403e-12
-1.340560725e-12
-1.398344128e-12
-1.45908335e-12
-1.522906769e-12
-1.589947638e-12
-1.660344354e-12
-1.734240735e-12
-1.811786329e-12
-1.893136741e-12
-1.978454008e-12
-2.067906969e-12
-2.161671701e-12
-2.259931962e-12
-2.362879682e-12
-2.470715503e-12
-2.583649323e-12
-2.701900933e-12
-2.825700669e-12
-2.955290145e-12
-3.090923004e-12
-3.232865817e-12
-3.381398987e-12
-3.536817813e-12
-3.699433633e-12
-3.86957516e-12
-4.047589984e-12
-4.233846322e-12
-4.428735086e-12
-4.63267235e-12
-4.846102378e-12
-5.069501314e-12
-5.303381849e-12
-5.548299102e-12
-5.804858142e-12
-6.073723781e-12
-6.355633166e-12
-6.651412475e-12
-6.961998733e-12
-7.288468724e-12
-7.632077319e-12
-7.994308365e-12
-8.37694246e-12
-8.782147276e-12
-9.212598066e-12
-9.671638565e-12
-1.016349588e-11
-1.069356765e-11
-1.126880583e-11
-1.189822956e-11
-1.259361073e-11
-1.337039026e-11
-1.424890263e-11
-1.525601223e-11
-1.642729974e-11
-1.780998298e-11
-1.946681815e-11
-2.148131009e-11
-2.396466867e-11
-2.706509539e-11
-3.098017755e-11
-3.597342682e-11
-4.239634224e-11
-5.071783682e-11
-6.156347533e-11
-7.57677805e-11
-9.444394267e-11
-1.190766966e-10
-1.51646028e-10
-1.947918954e-10
-2.520334904e-10
-3.280610014e-10
-4.291237056e-10
-5.635460068e-10
-7.424133065e-10
-9.804832189e-10
-1.297395587e-09
-1.719278484e-09
-2.280878623e-09
-3.028385779e-09
-4.023174875e-09
-5.346760537e-09
-7.107351933e-09
-9.44851767e-09
-1.256062967e-08
-1.669596213e-08
-2.218859131e-08
-2.948059064e-08
-3.915646674e-08
-5.198836148e-08
-6.899528779e-08
-9.152061375e-08
-1.21333209e-07
-1.607591757e-07
-2.128529734e-07
-2.81619078e-07
-3.722981718e-07
-4.917353046e-07
-6.488515662e-07
-8.552455667e-07
-1.125956428e-06
-1.480425866e-06
-1.94370304e-06
-2.547942259e-06
-3.334244417e-06
-4.354906394e-06
-5.676123365e-06
-7.381197381e-06
-9.574278217e-06
-1.238463116e-05
-1.597139493e-05
-2.052867107e-05
-2.629076522e-05
-3.353719872e-05
-4.259699092e-05
-5.385151176e-05
-6.773500004e-05
-8.47316306e-05
-0.0001053678221
-0.000130198331
-0.0001597846162
-0.0001946640143
-0.000235308495
-0.0002820721243
-0.0003351270578
-0.0003943885444
-0.0004594304998
-0.0005293942396
-0.0006028939896
-0.0006779243644
-0.0007517740795
-0.0008209525125
-0.0008811324405
-0.0009271071598
-0.0009527731207
-0.0009511050023
-0.0009141623036
-0.0008330879123
-0.0006981339431
-0.0004987429499
-0.000224038105
0.0001345733379
0.0005733649101
0.001130498088
0.001709302139
0.002754143777
0.003807552604
0.004818168332
0.004013883792
0.005539061865
0.006278645265
0.006568367251
0.006466976902
0.005987712696
0.005157233391
0.003912428534
0.002259969493
0.0003035954431
-0.002095542215
-0.00444248743
-0.005229109412
-0.00745569731
-0.009608877678
-0.01163830218
-0.01142445518
-0.0130166503
-0.01448376079
-0.01583727774
-0.01410141111
-0.0149120062
-0.01542454171
-0.01571174054
-0.01584231134
-0.015870285
-0.01583027293
-0.01452787779
-0.01427298554
-0.01355782507
-0.0131642179
-0.01280873482
-0.01251475037
-0.01231511225
-0.0122327406
-0.01196852803
-0.01094807545
-0.0100645151
-0.009236569385
-0.008329603007
-0.007453344875
-0.006860200051
-0.006593108707
-0.006632839618
-0.00695017915
-0.006138275966
-0.005458453038
-0.005475366464
-0.005256788422
-0.004940794515
-0.004609117523
-0.004301273545
-0.00403241773
-0.003775373447
-0.003566387912
-0.003372983497
-0.003192405803
-0.00302243546
-0.002861513101
-0.002708665005
-0.002563321222
-0.002425146038
-0.002293914856
-0.002169467912
-0.00205158939
-0.001940059613
-0.001834639922
-0.001735072499
-0.001641086205
-0.001552402864
-0.001468744623
-0.001389838092
-0.001315417864
-0.001245228932
-0.001179027908
-0.001116583254
-0.001057675682
-0.001002097934
-0.0009496543826
-0.0009001605588
-0.0008534426332
-0.0008093368876
-0.0007676891905
-0.0007283544879
-0.0006911963104
-0.0006560863053
-0.0006229037876
-0.0005915353131
-0.0005618742709
-0.0005338204968
-0.0005072799051
-0.0004821641372
-0.0004583902283
-0.0004358802903
-0.0004145612104
-0.0003943643637
-0.000375225343
-0.0003570836999
-0.0003398827015
-0.0003235690994
-0.000308092911
-0.0002934072145
-0.0002794679541
-0.0002662337574
-0.0002536657634
-0.0002417274611
-0.0002303845376
-0.0002196047362
-0.0002093577237
-0.0001996149651
-0.000190349608
-0.0001815363732
-0.0001731514542
-0.0001651724218
-0.0001575781363
-0.0001503486653
-0.0001434652071
-0.0001369100195
-0.0001306663534
-0.0001247183911
-0.0001190511889
-0.0001136506231
-0.0001085033406
-0.0001035967122
-9.891878923e-05
-9.445826335e-05
-9.020442861e-05
-8.614714643e-05
-8.227681272e-05
-7.858432695e-05
-7.506106371e-05
-7.16988456e-05
-6.848991805e-05
-6.542692574e-05
-6.25028904e-05
-5.971119009e-05
-5.704553947e-05
-5.449997163e-05
-5.206882064e-05
-4.974669449e-05
-4.752850351e-05
-4.540937845e-05
-4.338470834e-05
-4.145010451e-05
-3.960139744e-05
-3.783462236e-05
-3.614600918e-05
-3.453197181e-05
-3.298909895e-05
-3.151414474e-05
-3.010402028e-05
-2.875578554e-05
-2.746664171e-05
-2.623392388e-05
-2.50550943e-05
-2.392773583e-05
-2.284954583e-05
-2.181833032e-05
-2.083199861e-05
-1.988855799e-05
-1.898610885e-05
-1.812284009e-05
-1.729702466e-05
-1.650701538e-05
-1.575124104e-05
-1.502820264e-05
-1.433646985e-05
-1.367467765e-05
-1.304152315e-05
-1.243576261e-05
-1.185620852e-05
-1.130172694e-05
-1.077123495e-05
-1.026369815e-05
-9.77812838e-06
-9.313581533e-06
-8.869155502e-06
-8.443988138e-06
-8.037255405e-06
-7.648169613e-06
-7.275977715e-06
-6.919959684e-06
-6.579427003e-06
-6.253721217e-06
-5.942212522e-06
-5.644298467e-06
-5.359402735e-06
-5.086973907e-06
-4.82648435e-06
-4.577429163e-06
-4.339325105e-06
-4.111709675e-06
-3.894140142e-06
-3.686192682e-06
-3.48746152e-06
-3.297558146e-06
-3.116110548e-06
-2.942762457e-06
-2.777172698e-06
-2.619014487e-06
-2.467974815e-06
-2.323753853e-06
-2.186064376e-06
-2.054631201e-06
-1.929190678e-06
-1.809490197e-06
-1.695287694e-06
-1.586351204e-06
-1.482458447e-06
-1.383396373e-06
-1.288960812e-06
-1.198956061e-06
-1.113194546e-06
-1.031496467e-06
-9.536894655e-07
-8.796083245e-07
-8.090946558e-07
-7.419966152e-07
-6.781686215e-07
-6.174711171e-07
-5.597702846e-07
-5.049378315e-07
-4.528507495e-07
-4.033910929e-07
-3.564457808e-07
-3.119063776e-07
-2.696689174e-07
-2.296337058e-07
-1.917051562e-07
-1.557916109e-07
-1.218051827e-07
-8.966160604e-08
-5.928007622e-08
-3.058311606e-08
-3.496442537e-09
2.205117408e-08
4.612802344e-08
6.87995859e-08
9.012863747e-08
1.101753661e-07
1.28997475e-07
1.466502815e-07
1.631868155e-07
1.786579165e-07
1.931123152e-07
2.06596721e-07
2.191559092e-07
2.308327914e-07
2.416684971e-07
2.517024411e-07
2.609723959e-07
2.695145584e-07
2.773636097e-07
2.845527808e-07
2.911139065e-07
2.970774896e-07
3.024727442e-07
3.07327655e-07
3.116690264e-07
3.155225256e-07
3.189127332e-07
3.218631859e-07
3.243964171e-07
3.265339989e-07
3.28296579e-07
3.297039227e-07
3.307749421e-07
3.315277348e-07
3.319796164e-07
3.321471516e-07
3.320461842e-07
3.316918651e-07
3.310986853e-07
3.302804967e-07
3.29250541e-07
3.280214748e-07
3.266053924e-07
3.250138487e-07
3.232578809e-07
3.213480312e-07
3.192943645e-07
3.171064913e-07
3.147935816e-07
3.123643873e-07
3.098272576e-07
3.071901537e-07
3.044606684e-07
3.016460386e-07
2.987531607e-07
2.957886041e-07
2.927586263e-07
2.896691839e-07
2.865259465e-07
2.833343074e-07
2.800993961e-07
2.768260891e-07
2.735190196e-07
2.701825892e-07
2.668209761e-07
2.634381456e-07
2.600378581e-07
2.566236791e-07
2.531989857e-07
2.497669766e-07
2.463306776e-07
2.428929505e-07
2.394564997e-07
2.360238789e-07
2.32597497e-07
2.291796264e-07
2.257724056e-07
2.223778484e-07
2.189978472e-07
2.15634179e-07
2.122885107e-07
2.089624037e-07
2.056573185e-07
2.023746194e-07
1.991155788e-07
1.958813812e-07
1.926731274e-07
1.894918381e-07
1.863384576e-07
1.832138577e-07
1.801188402e-07
1.77054141e-07
1.74020433e-07
1.710183287e-07
1.680483833e-07
1.651110977e-07
1.622069205e-07
1.593362514e-07
1.564994428e-07
1.536968025e-07
1.509285956e-07
1.481950477e-07
1.45496345e-07
1.428326385e-07
1.402040438e-07
1.376106446e-07
1.350524934e-07
1.325296135e-07
1.300420003e-07
1.275896234e-07
1.251724275e-07
1.227903339e-07
1.204432422e-07
1.181310309e-07
1.158535594e-07
1.136106684e-07
1.114021817e-07
1.092279067e-07
1.070876359e-07
1.049811474e-07
1.029082065e-07
1.008685655e-07
9.886196578e-08
9.6888138e-08
9.494678083e-08
9.303765054e-08
9.116042726e-08
8.931480622e-08
8.750047202e-08
8.571711458e-08
8.3964405e-08
8.224201425e-08
8.054960772e-08
7.888684683e-08
7.725338912e-08
7.564888878e-08
7.407299691e-08
7.252536224e-08
7.100563128e-08
6.951344886e-08
6.804845835e-08
6.661030217e-08
6.519862182e-08
6.381305853e-08
6.245325327e-08
6.111884726e-08
5.980948199e-08
5.852479962e-08
5.726444312e-08
5.602805662e-08
5.481528543e-08
5.362577641e-08
5.245917794e-08
5.131514036e-08
5.019331592e-08
4.909335897e-08
4.801492616e-08
4.695767654e-08
4.592127161e-08
4.49053756e-08
4.390965537e-08
4.293378074e-08
4.197742429e-08
4.104026177e-08
4.012197188e-08
3.922223657e-08
3.834074095e-08
3.747717343e-08
3.663122574e-08
3.580259302e-08
3.499097374e-08
3.419606997e-08
3.341758714e-08
3.265523429e-08
3.190872395e-08
3.117777224e-08
3.046209888e-08
2.976142717e-08
2.907548403e-08
2.840399998e-08
2.774670921e-08
2.710334945e-08
2.647366216e-08
2.585739232e-08
2.525428857e-08
2.466410315e-08
2.408659192e-08
2.352151428e-08
2.296863321e-08
2.242771524e-08
2.189853046e-08
2.138085244e-08
2.087445826e-08
2.037912848e-08
1.989464705e-08
1.942080144e-08
1.895738242e-08
1.850418421e-08
1.806100429e-08
1.762764352e-08
1.720390602e-08
1.678959915e-08
1.638453347e-08
1.59885228e-08
1.560138404e-08
1.522293725e-08
1.485300557e-08
1.449141521e-08
1.413799537e-08
1.379257825e-08
1.345499902e-08
1.312509573e-08
1.280270932e-08
1.248768361e-08
1.217986517e-08
1.187910338e-08
1.158525034e-08
1.129816086e-08
1.101769241e-08
1.074370507e-08
1.047606153e-08
1.021462705e-08
9.959269357e-09
9.709858718e-09
9.466267807e-09
9.228371735e-09
8.996047966e-09
8.76917633e-09
8.547638938e-09
8.331320187e-09
8.120106702e-09
7.91388732e-09
7.712553037e-09
7.515996976e-09
7.32411438e-09
7.136802538e-09
6.95396078e-09
6.775490445e-09
6.601294837e-09
6.431279179e-09
6.265350629e-09
6.103418196e-09
5.945392745e-09
5.791186939e-09
5.640715246e-09
5.493893867e-09
5.350640731e-09
5.210875471e-09
5.074519374e-09
4.941495381e-09
4.811728022e-09
4.685143434e-09
4.5616693e-09
4.441234835e-09
4.323770761e-09
4.209209287e-09
4.097484072e-09
3.988530214e-09
3.882284213e-09
3.778683967e-09
3.677668733e-09
3.579179116e-09
3.483157041e-09
3.38954574e-09
3.298289728e-09
3.209334785e-09
3.122627946e-09
3.038117467e-09
2.955752832e-09
2.875484712e-09
2.79726498e-09
2.721046666e-09
2.64678398e-09
2.574432265e-09
2.503948016e-09
2.435288856e-09
2.368413533e-09
2.303281912e-09
2.239854981e-09
2.178094829e-09
2.117964663e-09
2.059428796e-09
2.002452663e-09
1.947002807e-09
1.893046906e-09
1.840553767e-09
1.789493735e-09
1.739837149e-09
1.691556697e-09
1.644625878e-09
1.599019424e-09
1.554713333e-09
1.511684985e-09
1.469912944e-09
1.429377494e-09
1.390060501e-09
1.351945762e-09
1.315019398e-09
1.279270463e-09
1.24469183e-09
1.211281359e-09
1.179043555e-09
1.14799104e-09
1.118146473e-09
1.089540979e-09
1.062214264e-09
1.036187738e-09
1.011480835e-09
9.879371212e-10
9.653335615e-10
9.429189339e-10
9.192796067e-10
8.918618237e-10
8.56456027e-10
4.433250988e-10
4.372696726e-10
2.901012304e-10
1.898207867e-10
1.228481356e-10
7.853559396e-11
4.953042584e-11
3.075820205e-11
1.875784248e-11
1.119184876e-11
6.496484825e-12
3.636133264e-12
1.932316508e-12
9.457182774e-13
3.955291828e-13
1.04834895e-13
-3.599223824e-14
-9.357414809e-14
-1.07450151e-13
-1.003913292e-13
-8.499224462e-14
-6.781981969e-14
-5.198018329e-14
-3.867407618e-14
-2.811623438e-14
-2.00615638e-14
-1.409334354e-14
-9.771174475e-15
-6.698864589e-15
-4.548751817e-15
-3.063829171e-15
-2.049892186e-15
-1.364268647e-15
-9.044712532e-16
-5.982277741e-16
-3.953649552e-16
-2.61516626e-16
-1.734168741e-16
-1.154731062e-16
-7.732562381e-17
-5.214130799e-17
-3.543928554e-17
-2.429372338e-17
-1.679911726e-17
-1.171540869e-17
-8.234600084e-18
-5.828460524e-18
-4.149771202e-18
-2.968587865e-18
-2.131221727e-18
-1.533863208e-18
-1.105597027e-18
-7.974216002e-19
-5.751043192e-19
-4.144907477e-19
-2.983904219e-19
-2.144828364e-19
-1.538899019e-19
-1.101893506e-19
-7.872389482e-20
-5.611184244e-20
-3.989701866e-20
-2.82963676e-20
-2.001694319e-20
-1.412269444e-20
-9.937273385e-21
-6.973058351e-21
-4.879330508e-21
-3.40446804e-21
-2.368413063e-21
-1.642657311e-21
-1.135728634e-21
-7.82692481e-22
-5.375780978e-22
-3.679293296e-22
-2.508950492e-22
-1.704319207e-22
-1.153085054e-22
-7.76851656e-23
-5.210636271e-23
-3.478757088e-23
-2.311205691e-23
-1.527675108e-23
-1.004372757e-23
-6.566312118e-24
-4.267761199e-24
-2.756887004e-24
-1.769563173e-24
-1.128314053e-24
-7.144977756e-25
-4.492328674e-25
-2.803746245e-25
-1.736619734e-25
-1.067282308e-25
-6.507014132e-26
-3.934990374e-26
-2.360001177e-26
-1.403633687e-26
-8.27862606e-27
-4.842210952e-27
-2.809059608e-27
-1.616582886e-27
-9.231719502e-28
-5.233384611e-28
-2.94646485e-28
-1.648409529e-28
-9.168593098e-29
-5.072357809e-29
-2.791903378e-29
-1.528762806e-29
-8.322705504e-30
-4.498600217e-30
-2.408368767e-30
-1.272060619e-30
-6.588861825e-31
-3.315322156e-31
-1.59526769e-31
-7.128232758e-32
-2.7639069e-32
-7.289865554e-33
1.251599661e-33
4.083417053e-33
4.365416835e-33
3.673546038e-33
2.746415447e-33
1.893552752e-33
1.215290684e-33
7.182249305e-34
3.734236085e-34
1.438935264e-34
-3.916214487e-36
-9.646649709e-35
-1.530125432e-34
-1.868153385e-34
-2.066332738e-34
-2.180568033e-34
-2.245514164e-34
-2.282102112e-34
-2.302677022e-34
-2.3143603e-34
-2.321174261e-34
-2.325345171e-34
-2.328081357e-34
-2.33002667e-34
-2.331518745e-34
-2.332732887e-34
-2.333760477e-34
-2.334650703e-34
-2.3354322e-34
-2.336123895e-34
-2.3367402e-34
-2.337293317e-34
-2.337794124e-34
-2.338252421e-34
-2.338676903e-34
-2.339075079e-34
-2.339453198e-34
-2.339816245e-34
-2.340167986e-34
-2.340511079e-34
-2.340847217e-34
-2.341177306e-34
-2.341501639e-34
-2.341820079e-34
-2.342132207e-34
-2.342437463e-34
-2.342735236e-34
-2.343024943e-34
-2.343306053e-34
-2.343578106e-34
-2.343840692e-34
-2.344093428e-34
-2.344335916e-34
-2.34456771e-34
-2.344788273e-34
-2.344996963e-34
-2.34519301e-34
-2.345375524e-34
-2.345543511e-34
-2.345695902e-34
-2.345831593e-34
-2.345949499e-34
-2.346048605e-34
-2.346128024e-34
-2.346187051e-34
-2.34622521e-34
-2.346242293e-34
-2.346238393e-34
-2.346213921e-34
-2.346169611e-34
-2.346106523e-34
-2.346026022e-34
-2.345929758e-34
-2.345819634e-34
-2.345697772e-34
-2.345566466e-34
-2.345428146e-34
-2.345285327e-34
-2.345140566e-34
-2.344996418e-34
-2.344855396e-34
-2.344719929e-34
-2.344592326e-34
-2.344474745e-34
-2.344369164e-34
-2.344277354e-34
-2.344200862e-34
-2.344140995e-34
-2.344098804e-34
-2.344075085e-34
-2.344070374e-34
-2.34408495e-34
-2.34411884e-34
-2.344171837e-34
-2.34424351e-34
-2.344333224e-34
-2.34444016e-34
-2.344563342e-34
-2.344701653e-34
-2.344853869e-34
-2.345018677e-34
-2.345194702e-34
-2.34538053e-34
-2.345574726e-34
-2.345775859e-34
-2.345982514e-34
-2.346193311e-34
-2.346406914e-34
-2.346622047e-34
-2.346837496e-34
-2.347052123e-34
-2.347264866e-34
-2.347474743e-34
-2.347680858e-34
-2.347882401e-34
-2.348078646e-34
-2.348268957e-34
-2.348452782e-34
-2.348629656e-34
-2.3487992e-34
-2.348961116e-34
-2.34911519e-34
-2.349261285e-34
-2.34939934e-34
-2.349529364e-34
-2.349651424e-34
-2.349765607e-34
-2.349871839e-34
-2.349968778e-34
-2.350046488e-34
)
;

boundaryField
{
    inlet
    {
        type            calculated;
        value           uniform 0;
    }
    outlet
    {
        type            calculated;
        value           uniform -2.350040421e-34;
    }
    wall
    {
        type            empty;
    }
}


// ************************************************************************* //
