/*--------------------------------*- C++ -*----------------------------------*\
  =========                 |
  \\      /  F ield         | OpenFOAM: The Open Source CFD Toolbox
   \\    /   O peration     | Website:  https://openfoam.org
    \\  /    A nd           | Version:  7
     \\/     M anipulation  |
\*---------------------------------------------------------------------------*/
FoamFile
{
    version     2.0;
    format      ascii;
    class       volScalarField;
    location    "0.000558243009";
    object      ddt0(rho,CH3CHCO);
}
// * * * * * * * * * * * * * * * * * * * * * * * * * * * * * * * * * * * * * //

dimensions      [1 -3 -1 0 0 0 0];

internalField   nonuniform List<scalar> 
1500
(
-5.436834491e-10
-1.660806201e-09
-2.525685219e-09
-2.586388003e-09
-2.006004408e-09
-1.255658942e-09
-6.600228067e-10
-2.996441108e-10
-1.205949141e-10
-4.522274283e-11
-1.836322241e-11
-1.095161028e-11
-1.027752075e-11
-1.155086943e-11
-1.313836885e-11
-1.453172264e-11
-1.557957274e-11
-1.62385079e-11
-1.6500064e-11
-1.636984706e-11
-1.586185356e-11
-1.499664302e-11
-1.380037074e-11
-1.230399672e-11
-1.054252391e-11
-8.554269443e-12
-6.380200889e-12
-4.063363979e-12
-1.648405489e-12
8.18829434e-13
3.291667316e-12
5.722999079e-12
8.065752558e-12
1.027349378e-11
1.23011834e-11
1.41060933e-11
1.564886364e-11
1.689464001e-11
1.781423214e-11
1.83852057e-11
1.859281905e-11
1.843072388e-11
1.790136402e-11
1.701602915e-11
1.579454903e-11
1.426464106e-11
1.246095173e-11
1.042385367e-11
8.198074993e-12
5.831243124e-12
3.372425068e-12
8.707349314e-13
-1.625933892e-12
-4.072011828e-12
-6.425169694e-12
-8.647044333e-12
-1.070378047e-11
-1.2566406e-11
-1.421106153e-11
-1.561910506e-11
-1.677710928e-11
-1.76767635e-11
-1.83146884e-11
-1.869216492e-11
-1.8814779e-11
-1.869198164e-11
-1.833656945e-11
-1.776409484e-11
-1.699222286e-11
-1.604005897e-11
-1.492747771e-11
-1.36744863e-11
-1.230065756e-11
-1.082466348e-11
-9.263935298e-12
-7.634464204e-12
-5.950748651e-12
-4.225879724e-12
-2.47174626e-12
-6.993327126e-13
1.080925139e-12
2.858762751e-12
4.623724454e-12
6.364849622e-12
8.07043344e-12
9.727882414e-12
1.132367474e-11
1.284342867e-11
1.42720736e-11
1.559411181e-11
1.679395419e-11
1.785630958e-11
1.876660554e-11
1.951141682e-11
2.007888023e-11
2.045907323e-11
2.06443394e-11
2.062954387e-11
2.041224872e-11
1.999280065e-11
1.937432931e-11
1.856265994e-11
1.756614807e-11
1.639544921e-11
1.506323937e-11
1.358390472e-11
1.19732191e-11
1.024802725e-11
8.425948284e-12
6.525111244e-12
4.563928848e-12
2.560910153e-12
5.345095979e-13
-1.49699656e-12
-3.515615477e-12
-5.503736987e-12
-7.444237128e-12
-9.320594808e-12
-1.111702709e-11
-1.281864373e-11
-1.441161812e-11
-1.588336699e-11
-1.72227298e-11
-1.842013543e-11
-1.946774465e-11
-2.035955792e-11
-2.109148111e-11
-2.166134481e-11
-2.206887759e-11
-2.231563696e-11
-2.240490528e-11
-2.234156085e-11
-2.213193466e-11
-2.178366362e-11
-2.130554878e-11
-2.070742535e-11
-2.000004573e-11
-1.919497561e-11
-1.830449605e-11
-1.734150446e-11
-1.631940301e-11
-1.525196306e-11
-1.415315585e-11
-1.303693994e-11
-1.191700278e-11
-1.080645639e-11
-9.717494056e-12
-8.661020582e-12
-7.64627505e-12
-6.680468e-12
-5.768459225e-12
-4.912503049e-12
-4.11208737e-12
-3.363886929e-12
-2.661849587e-12
-1.997421588e-12
-1.359914628e-12
-7.370010953e-13
-1.153208503e-13
5.188327e-13
1.178781782e-12
1.876732609e-12
2.623087064e-12
3.425842698e-12
4.290120881e-12
5.217858647e-12
6.207685382e-12
7.254997263e-12
8.35222601e-12
9.489284527e-12
1.065415873e-11
1.183360178e-11
1.301387799e-11
1.418150043e-11
1.532390374e-11
1.642999853e-11
1.749056654e-11
1.849846559e-11
1.944863407e-11
2.033790101e-11
2.116462845e-11
2.192822714e-11
2.262859944e-11
2.326557037e-11
2.383836705e-11
2.434520135e-11
2.478299997e-11
2.514730598e-11
2.543236395e-11
2.563137673e-11
2.57369096e-11
2.574140355e-11
2.563775281e-11
2.541990019e-11
2.508340709e-11
2.462595961e-11
2.404778145e-11
2.335193157e-11
2.254446977e-11
2.163447276e-11
2.063389235e-11
1.955723517e-11
1.842105334e-11
1.724323779e-11
1.604211299e-11
1.483536183e-11
1.363882635e-11
1.246527615e-11
1.132326535e-11
1.021623621e-11
9.142046013e-12
8.093092096e-12
7.057178184e-12
6.019206562e-12
4.963679445e-12
3.877868319e-12
2.755373805e-12
1.59965608e-12
4.269952824e-13
-7.317218343e-13
-1.831000441e-12
-2.813042079e-12
-3.612695764e-12
-4.165112431e-12
-4.415800326e-12
-4.332367601e-12
-3.916817088e-12
-3.216884255e-12
-2.334642596e-12
-1.430493943e-12
-7.207711682e-13
-4.6753187e-13
-9.597406275e-13
-2.485874197e-12
-5.299026347e-12
-9.576721982e-12
-1.537877761e-11
-2.26075486e-11
-3.097563134e-11
-3.998644733e-11
-4.893303813e-11
-5.691997861e-11
-6.291269378e-11
-6.58188076e-11
-6.46059182e-11
-5.8464633e-11
-4.700470563e-11
-3.0467599e-11
-9.669991505e-12
1.464721335e-11
2.98709715e-11
3.178994968e-11
3.343925008e-11
3.502916735e-11
3.660525597e-11
3.8174658e-11
3.973319816e-11
4.127605222e-11
4.279869408e-11
4.429793955e-11
4.577144024e-11
4.721711797e-11
4.863305812e-11
5.001707063e-11
5.136686633e-11
5.268007962e-11
5.395410165e-11
5.518623799e-11
5.63736704e-11
5.751351394e-11
5.86027192e-11
5.963801994e-11
6.06161425e-11
6.153357595e-11
6.238677868e-11
6.317177336e-11
6.38846747e-11
6.452123585e-11
6.50771767e-11
6.554777506e-11
6.59283095e-11
6.621364425e-11
6.6398497e-11
6.647731057e-11
6.64441164e-11
6.629280026e-11
6.60168781e-11
6.560944052e-11
6.506332002e-11
6.43709477e-11
6.352430074e-11
6.25149418e-11
6.133395568e-11
5.997203208e-11
5.841922164e-11
5.666506508e-11
5.469860711e-11
5.250818054e-11
5.008145836e-11
4.740553335e-11
4.446665106e-11
4.125037133e-11
3.774134251e-11
3.392347507e-11
2.977968466e-11
2.529193329e-11
2.04411521e-11
1.520720648e-11
9.568861982e-12
3.503676802e-12
-3.012138149e-12
-1.000356233e-11
-1.749711699e-11
-2.552067373e-11
-3.410376998e-11
-4.327743219e-11
-5.307454272e-11
-6.352973588e-11
-7.467946971e-11
-8.656232388e-11
-9.921882898e-11
-1.126917517e-10
-1.270260767e-10
-1.422693281e-10
-1.584713136e-10
-1.756846732e-10
-1.93964555e-10
-2.133690946e-10
-2.339592995e-10
-2.557993426e-10
-2.789565486e-10
-3.035015892e-10
-3.295087014e-10
-3.570554964e-10
-3.862236325e-10
-4.170983883e-10
-4.497692627e-10
-4.843297982e-10
-5.208778077e-10
-5.595156748e-10
-6.003503068e-10
-6.434933252e-10
-6.890612903e-10
-7.37175732e-10
-7.879633584e-10
-8.415562382e-10
-8.980917661e-10
-9.577130254e-10
-1.020568758e-09
-1.086813579e-09
-1.156608085e-09
-1.230118877e-09
-1.307518943e-09
-1.388987374e-09
-1.474709886e-09
-1.564878654e-09
-1.65969236e-09
-1.759356536e-09
-1.864083442e-09
-1.97409214e-09
-2.08960862e-09
-2.210865806e-09
-2.33810351e-09
-2.47156863e-09
-2.611514964e-09
-2.758203357e-09
-2.911901471e-09
-3.072884133e-09
-3.241432738e-09
-3.417835641e-09
-3.602387815e-09
-3.795390867e-09
-3.99715284e-09
-4.207988065e-09
-4.428217125e-09
-4.658166363e-09
-4.898168119e-09
-5.14856005e-09
-5.409685273e-09
-5.681891775e-09
-5.965532298e-09
-6.260964024e-09
-6.568548145e-09
-6.888649681e-09
-7.221636809e-09
-7.567880636e-09
-7.927754927e-09
-8.301635318e-09
-8.689899086e-09
-9.092924701e-09
-9.511090985e-09
-9.944776956e-09
-1.039436104e-08
-1.086022074e-08
-1.134273168e-08
-1.184226743e-08
-1.235919846e-08
-1.289389189e-08
-1.344671068e-08
-1.401801287e-08
-1.460815112e-08
-1.52174718e-08
-1.584631466e-08
-1.649501168e-08
-1.716388684e-08
-1.785325506e-08
-1.856342171e-08
-1.929468199e-08
-2.004731996e-08
-2.082160816e-08
-2.161780685e-08
-2.243616325e-08
-2.327691119e-08
-2.414027e-08
-2.502644447e-08
-2.593562408e-08
-2.686798208e-08
-2.782367559e-08
-2.880284465e-08
-2.980561197e-08
-3.08320826e-08
-3.18823431e-08
-3.29564619e-08
-3.405448848e-08
-3.517645323e-08
-3.632236739e-08
-3.749222299e-08
-3.86859924e-08
-3.990362867e-08
-4.114506565e-08
-4.241021754e-08
-4.369897974e-08
-4.501122876e-08
-4.634682259e-08
-4.770560092e-08
-4.908738623e-08
-5.049198348e-08
-5.191918161e-08
-5.336875355e-08
-5.484045757e-08
-5.633403804e-08
-5.784922617e-08
-5.938574153e-08
-6.094329279e-08
-6.252157953e-08
-6.412029332e-08
-6.573911908e-08
-6.737773701e-08
-6.903582418e-08
-7.071305628e-08
-7.240910941e-08
-7.41236626e-08
-7.585639913e-08
-7.760701011e-08
-7.937519502e-08
-8.11606658e-08
-8.296314894e-08
-8.478238769e-08
-8.66181455e-08
-8.84702091e-08
-9.033839048e-08
-9.222253203e-08
-9.412250745e-08
-9.603822754e-08
-9.796964191e-08
-9.991674356e-08
-1.018795733e-07
-1.038582222e-07
-1.058528368e-07
-1.078636226e-07
-1.098908494e-07
-1.119348549e-07
-1.139960493e-07
-1.160749203e-07
-1.181720384e-07
-1.202880609e-07
-1.224237378e-07
-1.245799168e-07
-1.26757549e-07
-1.289576936e-07
-1.311815246e-07
-1.334303365e-07
-1.357055494e-07
-1.380087164e-07
-1.403415282e-07
-1.427058211e-07
-1.451035829e-07
-1.475369593e-07
-1.500082616e-07
-1.525199727e-07
-1.550747546e-07
-1.57675456e-07
-1.6032512e-07
-1.630269906e-07
-1.657845215e-07
-1.686013844e-07
-1.714814756e-07
-1.74428925e-07
-1.774481065e-07
-1.805436425e-07
-1.837204169e-07
-1.869835824e-07
-1.903385691e-07
-1.937910947e-07
-1.97347175e-07
-2.010131331e-07
-2.047956076e-07
-2.087015661e-07
-2.127383109e-07
-2.169134869e-07
-2.212350851e-07
-2.257113625e-07
-2.30351917e-07
-2.351357476e-07
-2.401049399e-07
-2.452919769e-07
-2.50745485e-07
-2.563964093e-07
-2.622548875e-07
-2.683326701e-07
-2.746419702e-07
-2.811956175e-07
-2.880070411e-07
-2.950903072e-07
-3.024601462e-07
-3.101319817e-07
-3.181217817e-07
-3.26454537e-07
-3.352733052e-07
-3.444797089e-07
-3.540904528e-07
-3.641257021e-07
-3.745738545e-07
-3.854613238e-07
-3.968317876e-07
-4.087073196e-07
-4.211104364e-07
-4.340647238e-07
-4.475947025e-07
-4.617258215e-07
-4.764844934e-07
-4.918981258e-07
-5.079951563e-07
-5.248051066e-07
-5.423586134e-07
-5.606874848e-07
-5.798247514e-07
-5.998047126e-07
-6.206629981e-07
-6.424366312e-07
-6.651640884e-07
-6.888853792e-07
-7.136421143e-07
-7.394776029e-07
-7.664369332e-07
-7.945670872e-07
-8.239170485e-07
-8.545379319e-07
-8.864831318e-07
-9.198084775e-07
-9.545724273e-07
-9.908362731e-07
-1.028664389e-06
-1.068124507e-06
-1.109288055e-06
-1.152230527e-06
-1.197031942e-06
-1.243777369e-06
-1.29255755e-06
-1.343469652e-06
-1.396618136e-06
-1.452115828e-06
-1.510085172e-06
-1.570659753e-06
-1.6339861e-06
-1.7002259e-06
-1.769558616e-06
-1.842184681e-06
-1.918329334e-06
-1.998247272e-06
-2.08222827e-06
-2.170603977e-06
-2.263756153e-06
-2.362126637e-06
-2.466229445e-06
-2.576665401e-06
-2.694139904e-06
-2.819484452e-06
-2.953682733e-06
-3.09790231e-06
-3.253532947e-06
-3.422233203e-06
-3.605986842e-06
-3.807171273e-06
-4.028640535e-06
-4.273825886e-06
-4.546857769e-06
-4.852713636e-06
-5.197397127e-06
-5.588155206e-06
-6.033741262e-06
-6.544733864e-06
-7.133922907e-06
-7.816777239e-06
-8.612010983e-06
-9.542269197e-06
-1.063495785e-05
-1.192324835e-05
-1.344729306e-05
-1.525569589e-05
-1.740729083e-05
-1.997329303e-05
-2.303989907e-05
-2.671143017e-05
-3.111413018e-05
-3.640075419e-05
-4.275610989e-05
-5.040374845e-05
-5.961404056e-05
-7.071392063e-05
-8.409864078e-05
-0.0001002459432
-0.0001197331415
-0.0001432577004
-0.0001716620183
-0.0002059632578
-0.0002473892306
-0.0002974215466
-0.0003578474588
-0.000430822123
-0.0005189433016
-0.0006253409322
-0.0007537844236
-0.0009088110645
-0.001095879523
-0.001321553149
-0.001593718541
-0.001921845804
-0.002317297943
-0.002793697957
-0.003367363557
-0.004057820677
-0.004888408545
-0.005886990466
-0.007086785905
-0.008527340815
-0.01025565417
-0.01232747885
-0.01480881516
-0.01777761302
-0.02132569624
-0.0255609158
-0.03060953073
-0.03661880134
-0.04375976158
-0.05223011086
-0.0622571329
-0.0741005318
-0.08805484851
-0.1044515533
-0.1236600353
-0.1460873922
-0.1721763909
-0.2024009426
-0.2372588069
-0.2772598575
-0.3229103083
-0.3746913551
-0.4330319552
-0.4982753299
-0.5706391972
-0.6501702237
-0.7366938314
-0.8297612278
-0.9285963111
-1.032045863
-1.138537133
-1.246046991
-1.352087491
-1.453711262
-1.547539863
-1.629816266
-1.696479964
-1.743263369
-1.765798261
-1.759729926
-1.720825375
-1.645062466
-1.528714685
-1.368380062
-1.161028219
-0.9040030923
-0.5950496393
-0.2324449543
0.1844547984
0.6536655505
1.166831901
1.759678116
2.3671296
3.346529352
4.266538989
5.044901127
4.605885863
6.040919116
7.157712892
8.197839043
9.272973809
10.43091689
11.7186288
13.14340949
14.81744568
16.88174958
18.4738219
21.74471528
18.92843686
21.81074514
24.28009239
26.62986428
24.42729523
25.29554276
25.25033406
24.36205454
19.72286174
16.03417171
10.98482215
5.021660696
-1.296900856
-7.476031469
-13.14742674
-13.45367193
-17.54364329
-19.09189034
-23.77063334
-28.49433279
-32.83805511
-36.74010735
-40.0397143
-41.39172922
-38.63322433
-35.64645482
-32.39695318
-28.75136636
-25.23824636
-22.57683604
-20.70755227
-19.39447129
-18.45079367
-15.59110756
-13.13080607
-11.78556364
-10.32607119
-8.907630633
-7.615588691
-6.482764834
-5.51150641
-4.671387129
-3.972997903
-3.380920172
-2.879030452
-2.453300876
-2.091828031
-1.784622635
-1.523324152
-1.300925843
-1.111538207
-0.9502007723
-0.8127070282
-0.6954946792
-0.5955398896
-0.5102724037
-0.4375060323
-0.3753807863
-0.3223143225
-0.2769607118
-0.238175401
-0.2049853204
-0.1765633418
-0.1522064326
-0.1313170555
-0.1133872778
-0.09798523585
-0.08474362027
-0.0733498906
-0.06353796923
-0.055081197
-0.0477863634
-0.04148864991
-0.03604734852
-0.0313422369
-0.02727050953
-0.02374417891
-0.02068787421
-0.01803697561
-0.0157360322
-0.01373741954
-0.01200019963
-0.01048915209
-0.009173950028
-0.008028458501
-0.00703013669
-0.00615952808
-0.005399825229
-0.004736497921
-0.004156975152
-0.003650372935
-0.003207261099
-0.002819463326
-0.002479885544
-0.002182368527
-0.00192156117
-0.001692811474
-0.001492072659
-0.001315822268
-0.001160992389
-0.001024909437
-0.000905242134
-0.0007999565437
-0.0007072771757
-0.0006256533151
-0.000553729854
-0.0004903220078
-0.0004343933831
-0.000385036941
-0.0003414584629
-0.0003029621816
-0.0002689382858
-0.0002388520485
-0.000212234362
-0.0001886734939
-0.0001678079021
-0.0001493199695
-0.0001329305391
-0.0001183941432
-0.0001054948379
-9.404256404e-05
-8.38699665e-05
-7.482961279e-05
-6.679156032e-05
-5.9641227e-05
-5.327752724e-05
-4.761123909e-05
-4.256357117e-05
-3.806491851e-05
-3.405374741e-05
-3.047564213e-05
-2.728245313e-05
-2.443155561e-05
-2.188519579e-05
-1.960991732e-05
-1.757605673e-05
-1.575729991e-05
-1.413029183e-05
-1.267429308e-05
-1.137087736e-05
-1.020366507e-05
-9.158088442e-06
-8.221184541e-06
-7.381412558e-06
-6.628492638e-06
-5.953263533e-06
-5.347556873e-06
-4.804086024e-06
-4.316347813e-06
-3.878535582e-06
-3.485462218e-06
-3.132491984e-06
-2.815480112e-06
-2.530719244e-06
-2.274891915e-06
-2.045028384e-06
-1.838469172e-06
-1.65283179e-06
-1.48598114e-06
-1.33600319e-06
-1.201181549e-06
-1.079976595e-06
-9.71006881e-07
-8.730325548e-07
-7.849405729e-07
-7.057314981e-07
-6.345077116e-07
-5.704628823e-07
-5.128725514e-07
-4.610857123e-07
-4.145172761e-07
-3.72641328e-07
-3.349850853e-07
-3.011234865e-07
-2.706743402e-07
-2.432939745e-07
-2.186733356e-07
-1.965344861e-07
-1.766274623e-07
-1.587274518e-07
-1.426322593e-07
-1.281600289e-07
-1.151471981e-07
-1.034466586e-07
-9.292610282e-08
-8.346653671e-08
-7.496094339e-08
-6.731308006e-08
-6.043639644e-08
-5.425306159e-08
-4.869308836e-08
-4.369354543e-08
-3.919784858e-08
-3.515512279e-08
-3.151962816e-08
-2.825024342e-08
-2.531000125e-08
-2.266566984e-08
-2.028737676e-08
-1.814827017e-08
-1.622421432e-08
-1.449351532e-08
-1.293667464e-08
-1.153616728e-08
-1.027624226e-08
-9.142743171e-09
-8.122946752e-09
-7.205417884e-09
-6.379878967e-09
-5.637092697e-09
-4.968756548e-09
-4.367407957e-09
-3.826339147e-09
-3.339520469e-09
-2.901531621e-09
-2.507499748e-09
-2.153043896e-09
-1.834225047e-09
-1.54750125e-09
-1.289687342e-09
-1.057918687e-09
-8.496186825e-10
-6.624695412e-10
-4.943860182e-10
-3.434918691e-10
-2.080986435e-10
-8.668669387e-11
2.211192521e-11
1.195287953e-10
2.066729088e-10
2.845430551e-10
3.540389498e-10
4.159712046e-10
4.710703077e-10
5.199946971e-10
5.633379856e-10
6.016354828e-10
6.353700313e-10
6.649772702e-10
6.908503573e-10
7.133442052e-10
7.327793074e-10
7.494451573e-10
7.636033502e-10
7.754903315e-10
7.853199065e-10
7.932854826e-10
7.995620739e-10
8.043081281e-10
8.076671546e-10
8.097691896e-10
8.107321209e-10
8.106628734e-10
8.096584883e-10
8.07807073e-10
8.051886775e-10
8.018760744e-10
7.979354602e-10
7.934270883e-10
7.884058357e-10
7.829217286e-10
7.77020391e-10
7.707434687e-10
7.641290052e-10
7.572117786e-10
7.500236067e-10
7.425936212e-10
7.349485193e-10
7.271127829e-10
7.191088862e-10
7.109574686e-10
7.026775083e-10
6.942864667e-10
6.858004183e-10
6.772341791e-10
6.686014111e-10
6.599147216e-10
6.511857516e-10
6.424252599e-10
6.33643192e-10
6.248487494e-10
6.160504471e-10
6.072561694e-10
5.984732192e-10
5.897083611e-10
5.809678643e-10
5.722575375e-10
5.635827644e-10
5.549485319e-10
5.463594617e-10
5.378198312e-10
5.293336015e-10
5.209044347e-10
5.12535716e-10
5.04230571e-10
4.959918827e-10
4.878223045e-10
4.797242785e-10
4.71700043e-10
4.637516494e-10
4.558809707e-10
4.480897117e-10
4.403794199e-10
4.327514938e-10
4.252071911e-10
4.177476361e-10
4.103738282e-10
4.030866476e-10
3.958868622e-10
3.887751337e-10
3.817520229e-10
3.748179963e-10
3.679734288e-10
3.612186108e-10
3.54553752e-10
3.479789854e-10
3.414943715e-10
3.350999025e-10
3.287955056e-10
3.225810473e-10
3.164563359e-10
3.104211248e-10
3.04475116e-10
2.98617964e-10
2.928492751e-10
2.871686147e-10
2.815755061e-10
2.760694355e-10
2.706498525e-10
2.653161738e-10
2.600677841e-10
2.549040391e-10
2.498242672e-10
2.44827771e-10
2.399138297e-10
2.350817003e-10
2.303306199e-10
2.256598064e-10
2.210684608e-10
2.165557683e-10
2.121208999e-10
2.077630132e-10
2.034812547e-10
1.992747594e-10
1.951426537e-10
1.910840558e-10
1.87098034e-10
1.831837788e-10
1.793403453e-10
1.755668284e-10
1.718623127e-10
1.682259025e-10
1.646566758e-10
1.611537196e-10
1.577161188e-10
1.543429595e-10
1.510333287e-10
1.47786315e-10
1.446010087e-10
1.414765032e-10
1.384118949e-10
1.35406284e-10
1.324587747e-10
1.295684761e-10
1.267345019e-10
1.239559715e-10
1.212320097e-10
1.185617478e-10
1.159443232e-10
1.133788799e-10
1.108645692e-10
1.084005493e-10
1.05985986e-10
1.036200527e-10
1.013019306e-10
9.903080922e-11
9.680588603e-11
9.462636694e-11
9.24914664e-11
9.040040755e-11
8.835242217e-11
8.634675103e-11
8.43826437e-11
8.245935897e-11
8.05761645e-11
7.87323373e-11
7.692716341e-11
7.515993827e-11
7.342996646e-11
7.17365619e-11
7.00790478e-11
6.845675674e-11
6.686903043e-11
6.531522012e-11
6.379468616e-11
6.230679824e-11
6.085093526e-11
5.942648533e-11
5.803284575e-11
5.666942292e-11
5.533563232e-11
5.403089847e-11
5.275465489e-11
5.150634394e-11
5.028541696e-11
4.909133394e-11
4.792356366e-11
4.678158355e-11
4.566487968e-11
4.45729465e-11
4.350528696e-11
4.246141234e-11
4.144084219e-11
4.044310421e-11
3.946773423e-11
3.85142761e-11
3.758228149e-11
3.667131005e-11
3.578092902e-11
3.491071341e-11
3.406024569e-11
3.322911586e-11
3.241692129e-11
3.162326657e-11
3.08477635e-11
3.009003103e-11
2.934969501e-11
2.862638823e-11
2.79197503e-11
2.722942753e-11
2.655507283e-11
2.589634566e-11
2.525291188e-11
2.46244437e-11
2.401061956e-11
2.341112407e-11
2.282564786e-11
2.225388755e-11
2.169554562e-11
2.115033033e-11
2.061795564e-11
2.009814108e-11
1.959061172e-11
1.909509805e-11
1.861133587e-11
1.813906626e-11
1.767803543e-11
1.72279947e-11
1.678870035e-11
1.635991359e-11
1.594140044e-11
1.553293167e-11
1.513428271e-11
1.47452336e-11
1.436556884e-11
1.399507737e-11
1.363355252e-11
1.328079184e-11
1.293659708e-11
1.260077416e-11
1.227313303e-11
1.195348759e-11
1.164165568e-11
1.133745897e-11
1.104072292e-11
1.075127664e-11
1.046895295e-11
1.019358817e-11
9.92502216e-12
9.663098232e-12
9.40766305e-12
9.158566635e-12
8.91566222e-12
8.678806281e-12
8.447858417e-12
8.222681313e-12
8.003140691e-12
7.78910525e-12
7.580446608e-12
7.37703926e-12
7.178760513e-12
6.985490459e-12
6.797111901e-12
6.613510329e-12
6.434573853e-12
6.260193173e-12
6.090261529e-12
5.92467466e-12
5.763330766e-12
5.606130455e-12
5.452976729e-12
5.303774907e-12
5.158432638e-12
5.016859812e-12
4.878968579e-12
4.744673262e-12
4.613890366e-12
4.486538525e-12
4.36253847e-12
4.241813006e-12
4.124286984e-12
4.009887252e-12
3.898542651e-12
3.790183956e-12
3.68474388e-12
3.582157007e-12
3.482359797e-12
3.385290531e-12
3.290890012e-12
3.199098721e-12
3.109861045e-12
3.023122459e-12
2.938830289e-12
2.856933779e-12
2.77738436e-12
2.700135406e-12
2.625143327e-12
2.552367505e-12
2.481771109e-12
2.413321866e-12
2.346993006e-12
2.282764154e-12
2.220621855e-12
2.160559518e-12
2.102574926e-12
2.046665791e-12
1.992815928e-12
1.940981901e-12
1.891031023e-12
1.842763256e-12
1.795609457e-12
1.748880031e-12
1.7010643e-12
1.649849884e-12
1.591729516e-12
1.521829776e-12
7.93457485e-13
8.150281763e-13
5.330726246e-13
3.452747223e-13
2.221182245e-13
1.414544452e-13
8.898765465e-14
5.517557919e-14
3.362609222e-14
2.006918447e-14
1.166863917e-14
6.555461985e-15
3.509806496e-15
1.744226857e-15
7.566848475e-16
2.315810578e-16
-2.629466864e-17
-1.354084492e-16
-1.66010187e-16
-1.585577744e-16
-1.354594105e-16
-1.084456926e-16
-8.31201903e-17
-6.171128438e-17
-4.469603023e-17
-3.172841835e-17
-2.21476486e-17
-1.523940356e-17
-1.03563654e-17
-6.962248168e-18
-4.636856342e-18
-3.063584382e-18
-2.010819753e-18
-1.313082782e-18
-8.544379441e-19
-5.550120464e-19
-3.605756107e-19
-2.347827345e-19
-1.535511138e-19
-1.010851048e-19
-6.711535555e-20
-4.501495695e-20
-3.053280383e-20
-2.09532623e-20
-1.454533142e-20
-1.0205451e-20
-7.228086785e-21
-5.159593205e-21
-3.705747457e-21
-2.673527276e-21
-1.934550725e-21
-1.402118116e-21
-1.016750179e-21
-7.37017713e-22
-5.336650046e-22
-3.857916806e-22
-2.783281748e-22
-2.003351074e-22
-1.438352223e-22
-1.029967564e-22
-7.355191874e-23
-5.237867633e-23
-3.719554947e-23
-2.633878972e-23
-1.859786919e-23
-1.309444428e-23
-9.193044235e-24
-6.43529244e-24
-4.49155851e-24
-3.125522889e-24
-2.168294345e-24
-1.499491104e-24
-1.033619107e-24
-7.100833979e-25
-4.860845909e-25
-3.315826602e-25
-2.253343886e-25
-1.524839013e-25
-1.027925292e-25
-6.897152739e-26
-4.608062728e-26
-3.062626061e-26
-2.025535646e-26
-1.330433391e-26
-8.707257536e-27
-5.670994609e-27
-3.667681344e-27
-2.354982206e-27
-1.50851091e-27
-9.540429465e-28
-5.993966966e-28
-3.725914929e-28
-2.308654032e-28
-1.424264331e-28
-8.75337805e-29
-5.337523638e-29
-3.16694733e-29
-1.803366768e-29
-1.111255983e-29
-6.471131578e-30
-4.200101706e-30
-2.201227432e-30
-8.647614284e-31
-5.748454342e-31
-2.341010329e-31
-1.400564373e-31
7.449737383e-32
4.02025877e-31
4.72867256e-32
-1.014040561e-30
-5.747919293e-31
-1.486454535e-31
-1.449905942e-31
-4.971320266e-31
6.948034487e-32
-8.64837308e-32
7.61528744e-32
3.475216616e-31
3.729185554e-31
2.765052574e-32
7.087888081e-32
-1.55617806e-31
3.038002786e-31
-1.739596986e-31
7.014312948e-32
-3.61871596e-31
2.478696505e-31
-5.321354155e-32
5.348479875e-31
1.810074984e-31
1.913609137e-32
3.263827098e-31
-9.330835473e-32
-1.650440074e-31
1.103689102e-30
9.829892164e-31
8.693586429e-31
6.370194377e-31
8.327171135e-31
-4.973404988e-32
-5.749820046e-32
-7.374545995e-31
1.013885057e-30
-1.104325938e-31
1.072180639e-31
2.882160917e-31
3.856082263e-31
1.172733941e-31
-2.279023807e-31
1.721803176e-31
2.421879098e-31
1.319432335e-31
8.414450203e-31
9.870584677e-31
7.815361853e-31
8.801031172e-31
2.071043839e-31
1.551392249e-30
4.265255501e-31
4.297427708e-31
1.044345632e-30
-4.130047389e-31
-3.805186132e-32
-3.708714067e-31
4.937902668e-31
-7.903882506e-32
-1.024813486e-30
-4.679764663e-31
2.477521334e-31
4.970423419e-31
2.041902724e-31
2.477831161e-31
-3.983786861e-33
7.40044083e-32
-2.821152805e-31
2.188243217e-31
-7.922838294e-32
5.692033168e-31
-1.144937164e-31
-2.333213995e-31
-7.254742428e-32
1.943548399e-31
-3.163758666e-32
-2.056435205e-31
-2.231975332e-31
-2.778503596e-32
-3.179216088e-31
5.184197318e-31
3.18326776e-31
-7.15415047e-32
-2.806631855e-31
-1.117530065e-31
-4.38605161e-31
-6.043768679e-33
-7.749151515e-32
-1.795062604e-31
4.957012266e-31
1.223552144e-31
2.430591948e-31
-2.95483742e-32
-3.738074158e-31
-4.99176775e-32
1.58529442e-31
1.948245336e-31
2.31641993e-31
-2.742069998e-32
8.343865778e-32
-2.022645432e-35
-6.596496026e-32
2.335260699e-31
-2.980875142e-31
1.0102784e-31
-2.655479681e-31
-8.773428745e-32
2.43299095e-31
-1.167563812e-32
-1.533387521e-31
3.14615361e-31
1.04626605e-31
-3.500105818e-32
-5.042946648e-32
3.718804818e-31
-3.394351728e-32
2.195609381e-31
1.595175359e-31
-8.160587258e-32
-4.09323177e-31
1.426772787e-31
-2.856679278e-31
-1.335951107e-31
1.534915124e-31
4.06140969e-31
-1.710755294e-31
-7.346606507e-31
-2.530179867e-32
-2.300869401e-32
2.607512602e-31
-5.695053936e-33
-5.24753593e-32
-1.599137539e-31
1.000883299e-31
-4.81014857e-31
-1.964354761e-31
1.165976017e-31
-2.900968075e-31
-2.403563558e-31
3.670178877e-32
9.999203766e-31
-1.601557847e-31
-1.958942545e-31
)
;

boundaryField
{
    inlet
    {
        type            calculated;
        value           uniform 0;
    }
    outlet
    {
        type            calculated;
        value           uniform -1.954948449e-31;
    }
    wall
    {
        type            empty;
    }
}


// ************************************************************************* //
