/*--------------------------------*- C++ -*----------------------------------*\
  =========                 |
  \\      /  F ield         | OpenFOAM: The Open Source CFD Toolbox
   \\    /   O peration     | Website:  https://openfoam.org
    \\  /    A nd           | Version:  7
     \\/     M anipulation  |
\*---------------------------------------------------------------------------*/
FoamFile
{
    version     2.0;
    format      ascii;
    class       volScalarField;
    location    "0.000558243009";
    object      ddt0(rho,C4H8-1);
}
// * * * * * * * * * * * * * * * * * * * * * * * * * * * * * * * * * * * * * //

dimensions      [1 -3 -1 0 0 0 0];

internalField   nonuniform List<scalar> 
1500
(
-2.0120938e-09
-6.109434286e-09
-9.245416124e-09
-9.41677337e-09
-7.262020129e-09
-4.518721352e-09
-2.360667326e-09
-1.064957774e-09
-4.258958649e-10
-1.58917283e-10
-6.466005014e-11
-3.911662814e-11
-3.718077794e-11
-4.198426085e-11
-4.78131471e-11
-5.289917959e-11
-5.671732986e-11
-5.911702084e-11
-6.006940815e-11
-5.959538267e-11
-5.774600977e-11
-5.459616129e-11
-5.024106187e-11
-4.479342424e-11
-3.83806788e-11
-3.114232139e-11
-2.322749686e-11
-1.479291573e-11
-6.001117215e-12
2.980996744e-12
1.198350859e-11
2.0834915e-11
2.936384688e-11
3.740125878e-11
4.47831822e-11
5.135406289e-11
5.697060911e-11
6.150593132e-11
6.48537606e-11
6.693242346e-11
6.768825204e-11
6.709813507e-11
6.517096933e-11
6.194785567e-11
5.750098533e-11
5.193126535e-11
4.536482818e-11
3.794865279e-11
2.984557453e-11
2.122898382e-11
1.227751194e-11
3.169961764e-12
-5.919308018e-12
-1.482439871e-11
-2.339120847e-11
-3.148007383e-11
-3.896774278e-11
-4.574874064e-11
-5.173620587e-11
-5.686227124e-11
-6.107805378e-11
-6.435329786e-11
-6.667570103e-11
-6.804992656e-11
-6.849631032e-11
-6.80492593e-11
-6.675536031e-11
-6.467123278e-11
-6.186118745e-11
-5.839477877e-11
-5.434436117e-11
-4.978277222e-11
-4.478126784e-11
-3.940782454e-11
-3.372590171e-11
-2.779371628e-11
-2.166405071e-11
-1.538456385e-11
-8.998537728e-12
-2.545961906e-12
3.935171545e-12
1.040749404e-11
1.683294103e-11
2.317160965e-11
2.938088795e-11
3.541492849e-11
4.122450435e-11
4.675725795e-11
5.195832394e-11
5.677128187e-11
6.113937864e-11
6.500694601e-11
6.832093201e-11
7.103246131e-11
7.309834522e-11
7.448246025e-11
7.515693264e-11
7.510306863e-11
7.431199285e-11
7.278496744e-11
7.053338613e-11
6.757845602e-11
6.395059593e-11
5.968859781e-11
5.48386095e-11
4.945300461e-11
4.358920885e-11
3.730854637e-11
3.067516062e-11
2.375505153e-11
1.661525157e-11
9.323144143e-12
1.945913626e-12
-5.449904095e-12
-1.279880505e-11
-2.003667843e-11
-2.710118339e-11
-3.393217394e-11
-4.047219139e-11
-4.666702699e-11
-5.246634397e-11
-5.782433236e-11
-6.270036146e-11
-6.705958713e-11
-7.087347018e-11
-7.41201689e-11
-7.678477831e-11
-7.885940064e-11
-8.034304778e-11
-8.124138978e-11
-8.156637637e-11
-8.13357672e-11
-8.057261077e-11
-7.93047095e-11
-7.756410432e-11
-7.538660072e-11
-7.281134363e-11
-6.988043844e-11
-6.663859519e-11
-6.313276763e-11
-5.941174714e-11
-5.552566917e-11
-5.152539689e-11
-4.746174712e-11
-4.338454998e-11
-3.934154053e-11
-3.537710907e-11
-3.153095519e-11
-2.783671438e-11
-2.432063694e-11
-2.100041533e-11
-1.788425649e-11
-1.497029612e-11
-1.224642837e-11
-9.690620088e-12
-7.271730876e-12
-4.950849237e-12
-2.683095848e-12
-4.198323498e-13
1.888840987e-12
4.291424453e-12
6.832355499e-12
9.549502806e-12
1.247198197e-11
1.561843756e-11
1.899592151e-11
2.2599444e-11
2.641224454e-11
3.040677036e-11
3.454629881e-11
3.878709191e-11
4.308092376e-11
4.737778876e-11
5.162858696e-11
5.578757343e-11
5.981437665e-11
6.367543691e-11
6.734475271e-11
7.080389699e-11
7.404132566e-11
7.705107554e-11
7.983100152e-11
8.238074809e-11
8.469967825e-11
8.678497826e-11
8.863013836e-11
9.022397004e-11
9.155024749e-11
9.258801781e-11
9.331253554e-11
9.369673417e-11
9.371309465e-11
9.333574806e-11
9.254264274e-11
9.131761982e-11
8.965225537e-11
8.754736375e-11
8.501408132e-11
8.207446906e-11
7.876157143e-11
7.511889955e-11
7.119926569e-11
6.706292886e-11
6.2775022e-11
5.840225647e-11
5.400900792e-11
4.965295009e-11
4.538057145e-11
4.122301395e-11
3.719280923e-11
3.328215654e-11
2.946337812e-11
2.569207253e-11
2.191327576e-11
1.807056716e-11
1.411760785e-11
1.003110053e-11
5.823642101e-12
1.554501443e-12
-2.663876421e-12
-6.665864876e-12
-1.024104528e-11
-1.315223154e-11
-1.516333691e-11
-1.607598097e-11
-1.577223925e-11
-1.425940315e-11
-1.171125645e-11
-8.499403813e-12
-5.20779738e-12
-2.624009821e-12
-1.70207727e-12
-3.493992185e-12
-9.04997127e-12
-1.929141721e-11
-3.486461955e-11
-5.598734172e-11
-8.23040906e-11
-1.127684982e-10
-1.455724912e-10
-1.781413837e-10
-2.072120012e-10
-2.290076104e-10
-2.395229619e-10
-2.349307806e-10
-2.121412966e-10
-1.69488567e-10
-1.075411551e-10
-2.909609117e-11
6.279181179e-11
1.199971673e-10
1.270841315e-10
1.334693397e-10
1.397047633e-10
1.459080202e-10
1.52095129e-10
1.582513427e-10
1.643631887e-10
1.704187295e-10
1.764099365e-10
1.823306374e-10
1.88174811e-10
1.939366465e-10
1.99609275e-10
2.05185585e-10
2.106583626e-10
2.160196815e-10
2.212614558e-10
2.263752829e-10
2.313526437e-10
2.36184548e-10
2.408613514e-10
2.453735267e-10
2.497108382e-10
2.538631042e-10
2.578187337e-10
2.615666587e-10
2.650946944e-10
2.683907474e-10
2.7144134e-10
2.742332364e-10
2.767519463e-10
2.789827145e-10
2.809100702e-10
2.825173464e-10
2.837876644e-10
2.847031357e-10
2.852446787e-10
2.853926466e-10
2.851263255e-10
2.844237643e-10
2.832619387e-10
2.816165429e-10
2.794623127e-10
2.767721609e-10
2.735176704e-10
2.696691682e-10
2.651949643e-10
2.600615657e-10
2.542339895e-10
2.476748174e-10
2.403448068e-10
2.322020941e-10
2.232028506e-10
2.133003713e-10
2.024452479e-10
1.905851103e-10
1.776645211e-10
1.63624872e-10
1.484040116e-10
1.31935754e-10
1.141504648e-10
9.497379726e-11
7.432739889e-11
5.212777313e-11
2.828692757e-11
2.711042807e-12
-2.469915192e-11
-5.404864386e-11
-8.544923025e-11
-1.190189119e-10
-1.548829494e-10
-1.931738212e-10
-2.340324256e-10
-2.776071849e-10
-3.240560859e-10
-3.735455529e-10
-4.262522476e-10
-4.82362718e-10
-5.420745386e-10
-6.055963487e-10
-6.731486523e-10
-7.449647184e-10
-8.212900008e-10
-9.023847064e-10
-9.885223838e-10
-1.079992248e-09
-1.177098701e-09
-1.28016233e-09
-1.389521173e-09
-1.50553076e-09
-1.628565005e-09
-1.759017247e-09
-1.897300604e-09
-2.043848978e-09
-2.199117978e-09
-2.363585079e-09
-2.537751225e-09
-2.722141022e-09
-2.917303844e-09
-3.123814539e-09
-3.34227387e-09
-3.573310254e-09
-3.817579082e-09
-4.075765007e-09
-4.348581711e-09
-4.636772495e-09
-4.941111895e-09
-5.262405664e-09
-5.601491456e-09
-5.959239694e-09
-6.336554018e-09
-6.734371536e-09
-7.153663964e-09
-7.595437377e-09
-8.060733148e-09
-8.550627532e-09
-9.066233328e-09
-9.608698113e-09
-1.017920603e-08
-1.077897692e-08
-1.140926676e-08
-1.207136722e-08
-1.276660547e-08
-1.349634434e-08
-1.426198079e-08
-1.506494698e-08
-1.590670802e-08
-1.678876266e-08
-1.771264126e-08
-1.867990549e-08
-1.969214717e-08
-2.075098681e-08
-2.18580728e-08
-2.301507895e-08
-2.422370352e-08
-2.5485668e-08
-2.6802714e-08
-2.817660215e-08
-2.960911004e-08
-3.110202878e-08
-3.265716195e-08
-3.427632211e-08
-3.596132904e-08
-3.771400558e-08
-3.953617622e-08
-4.142966245e-08
-4.339628107e-08
-4.543784019e-08
-4.75561355e-08
-4.975294751e-08
-5.203003712e-08
-5.438914313e-08
-5.683197701e-08
-5.936022044e-08
-6.197552032e-08
-6.467948544e-08
-6.747368275e-08
-7.035963237e-08
-7.333880457e-08
-7.641261536e-08
-7.958242214e-08
-8.284952079e-08
-8.621513982e-08
-8.968043846e-08
-9.324650223e-08
-9.691433783e-08
-1.006848717e-07
-1.045589445e-07
-1.085373091e-07
-1.126206269e-07
-1.168094637e-07
-1.211042887e-07
-1.255054701e-07
-1.300132731e-07
-1.346278578e-07
-1.393492775e-07
-1.441774754e-07
-1.491122847e-07
-1.54153427e-07
-1.593005103e-07
-1.645530297e-07
-1.699103666e-07
-1.753717887e-07
-1.809364501e-07
-1.866033935e-07
-1.923715492e-07
-1.982397392e-07
-2.042066769e-07
-2.102709711e-07
-2.164311289e-07
-2.226855575e-07
-2.290325699e-07
-2.354703875e-07
-2.419971463e-07
-2.486109016e-07
-2.553096327e-07
-2.620912506e-07
-2.689536042e-07
-2.758944872e-07
-2.829116455e-07
-2.900027872e-07
-2.971655882e-07
-3.043977069e-07
-3.116967865e-07
-3.190604721e-07
-3.264864191e-07
-3.339723033e-07
-3.415158347e-07
-3.491147708e-07
-3.567669256e-07
-3.644701902e-07
-3.722225386e-07
-3.800220506e-07
-3.878669204e-07
-3.957554761e-07
-4.036861979e-07
-4.116577301e-07
-4.196689021e-07
-4.277187451e-07
-4.35806513e-07
-4.439317001e-07
-4.520940598e-07
-4.602936275e-07
-4.68530741e-07
-4.768060616e-07
-4.851205956e-07
-4.934757202e-07
-5.018732048e-07
-5.103152326e-07
-5.188044314e-07
-5.273438959e-07
-5.359372109e-07
-5.445884839e-07
-5.533023655e-07
-5.620840834e-07
-5.709394676e-07
-5.798749804e-07
-5.888977479e-07
-5.980155876e-07
-6.072370402e-07
-6.165714042e-07
-6.260287667e-07
-6.35620035e-07
-6.453569725e-07
-6.55252236e-07
-6.653194038e-07
-6.755730153e-07
-6.860286151e-07
-6.967027743e-07
-7.076131426e-07
-7.187784843e-07
-7.302187117e-07
-7.419549296e-07
-7.54009479e-07
-7.66405977e-07
-7.791693517e-07
-7.923258989e-07
-8.059033067e-07
-8.199306924e-07
-8.344386275e-07
-8.494588663e-07
-8.650277552e-07
-8.810673684e-07
-8.977377933e-07
-9.15162345e-07
-9.335254462e-07
-9.525682516e-07
-9.72331328e-07
-9.92860858e-07
-1.014204854e-06
-1.036413772e-06
-1.059540456e-06
-1.083640257e-06
-1.108771144e-06
-1.134993797e-06
-1.162371127e-06
-1.191000504e-06
-1.221419021e-06
-1.253263295e-06
-1.286600987e-06
-1.321511132e-06
-1.357955692e-06
-1.396038403e-06
-1.435925811e-06
-1.477704748e-06
-1.521464339e-06
-1.567297711e-06
-1.615301543e-06
-1.665576062e-06
-1.718225172e-06
-1.773356562e-06
-1.831081832e-06
-1.891516684e-06
-1.954781015e-06
-2.020999121e-06
-2.09029986e-06
-2.162816806e-06
-2.238688451e-06
-2.318058408e-06
-2.401075601e-06
-2.487894508e-06
-2.57867537e-06
-2.673584476e-06
-2.772794386e-06
-2.87648425e-06
-2.984840087e-06
-3.098055108e-06
-3.216330075e-06
-3.339873641e-06
-3.468902784e-06
-3.603643199e-06
-3.74432979e-06
-3.891207148e-06
-4.044530143e-06
-4.204564496e-06
-4.371587487e-06
-4.545888695e-06
-4.727770848e-06
-4.917550825e-06
-5.115560696e-06
-5.322149069e-06
-5.537682525e-06
-5.7625474e-06
-5.997151769e-06
-6.241927977e-06
-6.497335488e-06
-6.763864447e-06
-7.042039892e-06
-7.332426971e-06
-7.635637233e-06
-7.952336382e-06
-8.283253764e-06
-8.629194084e-06
-8.991051891e-06
-9.36982942e-06
-9.766658776e-06
-1.018282941e-05
-1.061982218e-05
-1.107935184e-05
-1.156341956e-05
-1.207437863e-05
-1.261501589e-05
-1.31886533e-05
-1.379927434e-05
-1.445168133e-05
-1.515169147e-05
-1.590638086e-05
-1.672438853e-05
-1.761629494e-05
-1.859509342e-05
-1.967677713e-05
-2.088107001e-05
-2.223233653e-05
-2.37607144e-05
-2.550352419e-05
-2.750702354e-05
-2.982858981e-05
-3.253943526e-05
-3.572798432e-05
-3.950407287e-05
-4.400417009e-05
-4.939786848e-05
-5.589595011e-05
-6.376040838e-05
-7.331689751e-05
-8.497019246e-05
-9.9223384e-05
-0.000116701704
-0.0001381820881
-0.000164629849
-0.0001972441538
-0.0002375143994
-0.0002872900755
-0.0003488673035
-0.0004250959944
-0.0005195124707
-0.0006365035378
-0.0007815093417
-0.0009612740659
-0.001184155539
-0.001460507364
-0.001803150211
-0.002227952636
-0.002754546234
-0.003407205429
-0.004215928604
-0.005217765155
-0.006458442368
-0.007994356935
-0.009895009122
-0.01224597257
-0.01515251055
-0.01874396973
-0.02317910489
-0.02865251412
-0.03540239131
-0.04371983109
-0.05395995209
-0.06655513004
-0.08203065646
-0.1010231501
-0.1243020483
-0.1527944772
-0.1876137424
-0.2300915682
-0.281814042
-0.3446610615
-0.4208480131
-0.5129699025
-0.6240442882
-0.757551594
-0.9174685861
-1.108289779
-1.335032316
-1.603212247
-1.918788432
-2.288059919
-2.717507153
-3.213565657
-3.782322093
-4.42912488
-5.158105539
-5.971612632
-6.86956747
-7.848759496
-8.902109211
-10.01793388
-11.17926404
-12.36325836
-13.54077262
-14.67613447
-15.72716433
-16.64548817
-17.37710656
-17.86323466
-18.04130774
-17.84598256
-17.21022748
-16.06582155
-14.34395187
-11.97509617
-8.888816043
-5.014373502
-0.2872992473
5.324117941
11.74192591
19.48184627
27.59619743
41.51820608
55.43151095
68.28525133
61.39338256
84.09722463
100.3368785
113.0982556
123.2718015
133.5193795
150.2767299
175.1687408
195.479957
195.3615256
166.5006085
130.0109536
83.02991714
18.81022752
-60.29018309
-147.8364903
-177.5864133
-272.3104242
-369.7596089
-470.8151446
-414.94356
-506.5985632
-591.5357703
-668.3118758
-729.844511
-761.6051629
-751.128356
-679.2962728
-593.6532866
-490.471578
-391.6989317
-303.9346639
-231.0173546
-173.1045262
-128.5541104
-94.52468247
-68.3840334
-49.21426175
-35.26100563
-25.14910187
-17.88906759
-12.7376559
-9.091642384
-6.508617052
-4.666293502
-3.309700419
-2.342335282
-1.665056108
-1.1802746
-0.8345829026
-0.5889255893
-0.4148527939
-0.2917896408
-0.2048825576
-0.1436930303
-0.1006355571
-0.07037791612
-0.04914345478
-0.03426160803
-0.02384655758
-0.01656829713
-0.01148994226
-0.007952323713
-0.005492242536
-0.003784605844
-0.002601567763
-0.001783660959
-0.001219439757
-0.000831140179
-0.0005645898356
-0.0003821166717
-0.0002575716198
-0.0001728397018
-0.0001153979318
-7.66084985e-05
-5.052772286e-05
-3.307633012e-05
-2.146243984e-05
-1.37810568e-05
-8.736627302e-06
-5.451254532e-06
-3.332427588e-06
-1.982018626e-06
-1.133836945e-06
-6.10900399e-07
-2.962885123e-07
-1.133271071e-07
-1.216667056e-08
3.927150715e-08
6.137511167e-08
6.690268928e-08
6.36817703e-08
5.638932219e-08
4.771770517e-08
3.913139798e-08
3.135288675e-08
2.467060386e-08
1.913092055e-08
1.465534445e-08
1.111004737e-08
8.345461892e-09
6.217439906e-09
4.59733631e-09
3.375671482e-09
2.462262801e-09
1.784580608e-09
1.285362311e-09
9.200666325e-10
6.544730787e-10
4.625663196e-10
3.247502189e-10
2.263847816e-10
1.566141623e-10
1.07444074e-10
7.302574347e-11
4.910669839e-11
3.261376953e-11
2.133927972e-11
1.370676065e-11
8.597307105e-12
5.221738539e-12
3.027081736e-12
1.628571942e-12
7.605035307e-13
2.409100219e-13
-5.366899004e-14
-2.061087723e-13
-2.713488774e-13
-2.852657669e-13
-2.708529431e-13
-2.424955174e-13
-2.089021861e-13
-1.750987991e-13
-1.437702687e-13
-1.161524579e-13
-9.26172045e-14
-7.304917031e-14
-5.708338612e-14
-4.425031698e-14
-3.406093796e-14
-2.605339998e-14
-1.981566644e-14
-1.499365915e-14
-1.129122834e-14
-8.465615334e-15
-6.320968e-15
-4.701329323e-15
-3.483817656e-15
-2.57253332e-15
-1.893212449e-15
-1.388745467e-15
-1.015483167e-15
-7.402607033e-16
-5.380018124e-16
-3.898531109e-16
-2.816756939e-16
-2.029280211e-16
-1.457764374e-16
-1.044205727e-16
-7.458598052e-17
-5.312714428e-17
-3.773061859e-17
-2.672074867e-17
-1.887025392e-17
-1.328894497e-17
-9.332455401e-18
-6.536326908e-18
-4.566554969e-18
-3.182486709e-18
-2.21321803e-18
-1.536161891e-18
-1.065056693e-18
-7.380261863e-19
-5.113976768e-19
-3.548790069e-19
-2.466179609e-19
-1.726850121e-19
-1.221650716e-19
-8.758763149e-20
-6.363977094e-20
-4.699525308e-20
-3.550746057e-20
-2.741828795e-20
-2.163754711e-20
-1.742479134e-20
-1.447593801e-20
-1.200554565e-20
-1.015144216e-20
-8.534487848e-21
-7.465466464e-21
-6.565027481e-21
-6.066230757e-21
-5.54324915e-21
-4.902731353e-21
-4.459083002e-21
-3.979550039e-21
-3.614524987e-21
-3.228379996e-21
-2.866454083e-21
-2.535777619e-21
-2.349722641e-21
-2.17966756e-21
-1.978907344e-21
-1.831345017e-21
-1.726927026e-21
-1.608252242e-21
-1.481892841e-21
-1.345024353e-21
-1.194316748e-21
-1.074051069e-21
-9.872177744e-22
-8.968389553e-22
-8.280415657e-22
-7.72617633e-22
-7.067479924e-22
-6.521163231e-22
-6.014155672e-22
-5.597227223e-22
-5.177215235e-22
-4.771637178e-22
-4.437904703e-22
-4.212312903e-22
-3.891608386e-22
-3.715932733e-22
-3.451524838e-22
-3.166828647e-22
-2.95011525e-22
-2.787533759e-22
-2.639479613e-22
-2.503562258e-22
-2.361899581e-22
-2.183956441e-22
-2.00819279e-22
-1.871734361e-22
-1.734730227e-22
-1.59551084e-22
-1.465017349e-22
-1.358755273e-22
-1.264963903e-22
-1.173371315e-22
-1.12461684e-22
-1.077185421e-22
-1.016242902e-22
-9.852318697e-23
-9.536867531e-23
-9.155911538e-23
-8.900009121e-23
-8.335701249e-23
-7.549505097e-23
-6.854919565e-23
-6.275802921e-23
-5.91009665e-23
-5.694631608e-23
-5.404323392e-23
-5.150630133e-23
-5.041627113e-23
-4.974304751e-23
-4.665385521e-23
-4.206186072e-23
-3.898938209e-23
-3.711147971e-23
-3.644195356e-23
-3.638640733e-23
-3.607360116e-23
-3.478032623e-23
-3.307637412e-23
-3.246050407e-23
-3.176290708e-23
-3.069315136e-23
-2.904275623e-23
-2.753257717e-23
-2.566841456e-23
-2.372679904e-23
-2.15931771e-23
-2.087814077e-23
-2.026283964e-23
-2.003744367e-23
-1.924515146e-23
-1.898797959e-23
-1.76599756e-23
-1.753913828e-23
-1.654447856e-23
-1.536752306e-23
-1.410100154e-23
-1.325328329e-23
-1.259607381e-23
-1.145523052e-23
-1.055724773e-23
-1.017510142e-23
-9.820140769e-24
-9.289190417e-24
-8.673544452e-24
-8.154108719e-24
-7.576547781e-24
-7.290750917e-24
-7.14059909e-24
-7.374738598e-24
-7.373263481e-24
-6.99269736e-24
-6.808240208e-24
-6.715979067e-24
-6.334213401e-24
-6.008204039e-24
-5.67297909e-24
-5.671616132e-24
-5.782991298e-24
-5.439624032e-24
-5.212575986e-24
-5.012857125e-24
-4.896142934e-24
-4.66348066e-24
-4.404955462e-24
-4.222923741e-24
-4.242273133e-24
-3.893680291e-24
-3.725028506e-24
-3.513393191e-24
-3.323265811e-24
-3.183029298e-24
-2.736386482e-24
-2.337693369e-24
-2.025408798e-24
-1.844293978e-24
-1.828775661e-24
-1.846170925e-24
-1.880188476e-24
-1.865700355e-24
-1.699506782e-24
-1.530540004e-24
-1.492029154e-24
-1.36620848e-24
-1.410493238e-24
-1.418803813e-24
-1.279120297e-24
-1.210560522e-24
-1.122196762e-24
-1.131476484e-24
-1.002476434e-24
-8.781102155e-25
-7.600154819e-25
-7.990419214e-25
-9.094362128e-25
-9.124606311e-25
-8.925501503e-25
-8.822883894e-25
-7.480127096e-25
-8.019540868e-25
-7.525374671e-25
-6.499282779e-25
-6.20615164e-25
-5.096303179e-25
-4.750192029e-25
-4.843436525e-25
-3.793075765e-25
-3.573759227e-25
-4.316908724e-25
-4.631784733e-25
-4.103788307e-25
-4.226023357e-25
-4.242368179e-25
-4.33285236e-25
-4.603559953e-25
-4.264603383e-25
-4.243729862e-25
-4.016776305e-25
-2.703895431e-25
-2.124671793e-25
-1.642288544e-25
-4.506720497e-26
-9.838824281e-26
-9.654025122e-26
-1.646593326e-25
-2.052589091e-25
-2.110011224e-25
-1.794368292e-25
-1.222560569e-25
-1.255092054e-25
-1.028949225e-25
-9.51857007e-26
-8.157851181e-26
-1.355682106e-25
-1.337456945e-25
-1.547329766e-25
-1.323581576e-25
-1.434486954e-25
-1.256756982e-25
-8.629003935e-26
-4.291307267e-26
-3.762976313e-26
-1.623310581e-26
-1.689564898e-27
3.268304515e-26
3.5894831e-26
3.216820763e-26
1.997561065e-26
-9.040982703e-27
-4.030220447e-26
-3.735629971e-26
5.060711625e-27
3.412120482e-26
1.983243798e-26
-7.971327732e-27
5.36333508e-27
6.830632239e-27
1.55355352e-26
2.340824215e-26
2.338690827e-26
-2.752089629e-26
-1.786126977e-26
-3.748978717e-26
-5.400614482e-26
-5.504591075e-26
-3.803548335e-26
-2.468249884e-26
-1.504706104e-26
2.32008289e-27
7.995943812e-27
-8.543269517e-28
5.432048289e-27
2.687261471e-26
8.695270837e-26
1.194804555e-25
1.045058104e-25
9.032600607e-26
9.918841058e-26
8.954009054e-26
1.131057574e-25
1.626883189e-25
1.928068658e-25
1.973065645e-25
1.634246095e-25
1.328837107e-25
1.445088865e-25
1.607546289e-25
1.601921403e-25
1.787732373e-25
1.698494107e-25
1.522523217e-25
1.160348832e-25
6.869626608e-26
4.85069528e-26
7.444002521e-26
1.062485685e-25
9.855734598e-26
9.245917234e-26
7.079870703e-26
5.775982471e-26
2.165357788e-26
9.06451163e-27
-5.014458105e-27
2.455639586e-26
1.503278079e-26
1.239208172e-26
9.831097141e-27
3.56720873e-27
1.925860376e-26
4.313162309e-26
4.497724981e-26
4.847880722e-26
5.404617023e-26
6.959805057e-26
8.130878043e-26
7.342047727e-26
7.170548227e-26
9.772884e-26
1.080579533e-25
1.230075014e-25
1.135388389e-25
9.230376372e-26
6.37066995e-26
4.703022157e-26
1.639099229e-26
2.892521268e-26
3.073716734e-26
4.318342646e-26
5.361117903e-26
6.655134708e-26
8.033533693e-26
6.89778687e-26
5.228372335e-26
4.051718535e-26
4.907635831e-26
6.598653682e-26
7.013143818e-26
6.820398684e-26
7.123198001e-26
7.08501073e-26
7.131595237e-26
7.005131856e-26
5.997903754e-26
5.531291699e-26
4.719551484e-26
4.483320808e-26
4.089270337e-26
5.478990751e-26
6.289606436e-26
6.502143663e-26
6.618977004e-26
6.535984831e-26
3.928031222e-26
4.138276401e-26
5.761937712e-26
8.007169908e-26
9.484022371e-26
9.204445377e-26
7.759483693e-26
6.304306533e-26
4.995305714e-26
4.103689664e-26
3.651975047e-26
3.300912062e-26
2.083453786e-26
1.3115424e-26
6.076204253e-28
-7.267237568e-27
-6.381474465e-27
-4.995512325e-27
-6.861950142e-27
-8.242359855e-27
1.675902838e-26
4.123688727e-26
3.821732476e-26
4.116616985e-26
3.112680193e-26
3.118648616e-26
3.347603435e-26
4.431420153e-26
4.559751867e-26
4.123585675e-26
4.453516185e-26
3.717119574e-26
3.77221136e-26
5.38819455e-26
4.190936858e-26
4.652600792e-26
5.144410399e-26
4.540995421e-26
4.1335675e-26
4.96677123e-26
3.974636018e-26
4.281571077e-26
5.34611786e-26
2.811122612e-26
3.58136178e-26
3.546165906e-26
3.320589906e-26
2.43681238e-26
1.952905794e-26
1.319937087e-25
-2.141921766e-26
-3.89919993e-26
7.372873652e-26
-1.796475308e-26
-8.559088307e-27
7.004709384e-26
-4.43569323e-26
-4.005968769e-26
-3.415507257e-26
-3.168259516e-26
8.0325411e-28
1.142012647e-26
-7.69291329e-27
2.01101702e-27
-8.571135886e-27
1.300560917e-26
-3.835396208e-28
-2.172155123e-27
-2.109617307e-27
3.304063563e-27
-5.821545075e-28
4.69856484e-27
-9.101641795e-28
-7.409739735e-29
-2.067640901e-28
5.281429031e-29
6.890313093e-29
7.639867519e-29
-1.000247968e-29
-1.154868548e-27
5.271066163e-28
2.231075829e-28
-4.292892446e-30
9.615155204e-29
3.398859979e-30
-9.031453694e-29
-5.854306483e-29
-4.00271358e-29
-9.813958821e-29
-3.304884795e-28
-4.226957549e-28
-2.843337402e-28
-1.244933683e-28
-2.794248749e-29
-2.445378327e-27
-7.543951701e-29
-1.191873164e-27
-5.412452419e-29
5.453917405e-30
6.378340465e-28
6.437321414e-29
-9.700168297e-30
-4.80473089e-28
2.19742251e-28
1.223725378e-28
-4.048912141e-28
1.109688893e-29
6.416222821e-28
5.109288284e-29
-3.075056395e-29
7.488751374e-29
3.810437995e-28
-3.355727489e-28
-1.062773668e-29
1.172716859e-28
2.800299779e-29
-2.806626041e-30
-9.410321226e-29
-6.550098671e-29
-2.838561035e-28
-2.124011854e-28
2.293783258e-28
-4.765122157e-30
1.529170901e-28
-1.310721064e-28
1.961435259e-28
-2.253239791e-28
-1.62781881e-28
1.155708314e-28
1.398323211e-28
-2.481414952e-28
2.395104843e-28
7.185604094e-30
-5.176260991e-29
8.26239518e-29
4.753631733e-29
9.459011127e-31
4.668722917e-31
5.884831308e-29
-4.189336952e-29
5.784142539e-29
2.418826758e-29
3.787645632e-29
-1.848534556e-29
1.834771056e-31
7.939467227e-30
-4.216584791e-30
9.202404751e-31
3.955294081e-32
3.051349721e-30
4.115385147e-30
3.374011184e-30
-9.213059926e-30
-1.354066778e-29
-1.552871054e-30
-5.140562009e-30
-5.00676763e-30
7.2308803e-30
9.494160391e-32
5.433868474e-32
-4.98387719e-30
6.874343231e-31
4.745758573e-30
7.895532081e-30
-2.638776682e-30
7.506030523e-30
-2.004622098e-30
-6.401677352e-32
6.479276137e-30
2.201209662e-30
4.294783032e-31
-5.496622234e-31
4.073672218e-31
1.67254974e-30
-6.755009016e-30
-2.116103124e-30
-1.756895917e-30
5.63314442e-31
-2.221404628e-30
-2.750349349e-30
-6.318398886e-30
-1.986308126e-30
5.787763746e-30
2.948899111e-30
-6.161794532e-31
-1.42845237e-30
-2.000697434e-30
-1.09085955e-30
-1.05265937e-29
-1.943924077e-29
-1.757000197e-30
-1.996996004e-30
-5.89402231e-31
2.191742663e-30
4.420673759e-32
-6.284345277e-30
-1.692808166e-29
-2.815491294e-31
-4.129648572e-30
-9.32919421e-31
-3.307608483e-31
-5.727132771e-30
2.5763211e-29
2.090707966e-31
-4.103697554e-30
-2.705829341e-30
2.6364429e-29
-3.583765365e-30
-2.260263025e-30
-1.263732431e-30
4.123567891e-31
-1.991796316e-30
-6.051928701e-30
1.481746922e-29
-5.452018962e-30
3.403043514e-29
-1.124046195e-30
-1.290889239e-29
-8.155010658e-30
4.878900655e-30
-1.130623679e-29
1.696706244e-30
-1.248638877e-29
5.707931629e-30
2.895859805e-31
-2.372886098e-30
-5.3083901e-30
-6.661587648e-30
-1.783507826e-32
1.101283219e-31
7.26015783e-30
1.344228852e-30
-7.040710596e-31
-1.195558433e-29
-1.596423194e-30
-4.725562617e-32
1.551638595e-29
9.037094581e-31
8.151700732e-30
2.458682135e-30
5.146055971e-30
9.164392413e-30
7.042431459e-32
-2.226691907e-33
-5.138602148e-31
-1.299939667e-30
-3.46176735e-33
-7.455873876e-31
1.195767649e-29
2.657313204e-30
-4.425404615e-30
-8.156470661e-30
-6.956153959e-31
6.118249911e-30
1.655185582e-29
1.297384114e-31
2.374583216e-30
1.640726093e-30
-7.34885257e-31
2.856701243e-32
-9.381726331e-31
-1.534197529e-30
-4.657314244e-30
6.736089594e-33
6.247950563e-33
4.650753514e-30
-5.631553921e-31
2.151482012e-33
6.748389386e-32
2.922712212e-31
2.943450178e-32
-1.12100691e-30
-7.546213025e-33
1.902640729e-33
3.727583242e-31
-2.110289845e-30
-5.988741277e-30
2.288101194e-30
1.576629242e-30
5.385343326e-30
3.361734264e-32
1.003366828e-33
-4.209604636e-31
2.71251375e-30
2.349723412e-32
8.191304637e-30
9.260016827e-30
8.44850645e-30
7.345614309e-32
4.044813649e-31
-4.290939486e-30
1.067093589e-29
-9.499464743e-30
4.536245669e-30
-1.453649689e-29
-6.243084267e-31
-1.471010791e-30
-1.543352174e-29
-8.49942583e-31
)
;

boundaryField
{
    inlet
    {
        type            calculated;
        value           uniform 0;
    }
    outlet
    {
        type            calculated;
        value           uniform -8.499425315e-31;
    }
    wall
    {
        type            empty;
    }
}


// ************************************************************************* //
