/*--------------------------------*- C++ -*----------------------------------*\
  =========                 |
  \\      /  F ield         | OpenFOAM: The Open Source CFD Toolbox
   \\    /   O peration     | Website:  https://openfoam.org
    \\  /    A nd           | Version:  7
     \\/     M anipulation  |
\*---------------------------------------------------------------------------*/
FoamFile
{
    version     2.0;
    format      ascii;
    class       volScalarField;
    location    "0.000558243009";
    object      ddt0(rho,C2H3CHO);
}
// * * * * * * * * * * * * * * * * * * * * * * * * * * * * * * * * * * * * * //

dimensions      [1 -3 -1 0 0 0 0];

internalField   nonuniform List<scalar> 
1500
(
-2.342003584e-10
-7.098976547e-10
-1.072723467e-09
-1.090708062e-09
-8.394843893e-10
-5.212579487e-10
-2.717094461e-10
-1.222916027e-10
-4.879287513e-11
-1.817304811e-11
-7.399632658e-12
-4.499612636e-12
-4.296332948e-12
-4.859369673e-12
-5.536387935e-12
-6.125928141e-12
-6.568234665e-12
-6.846169132e-12
-6.956469934e-12
-6.901575586e-12
-6.687404254e-12
-6.3226276e-12
-5.81827356e-12
-5.187395173e-12
-4.444749871e-12
-3.606492342e-12
-2.68989471e-12
-1.713105263e-12
-6.949472923e-13
3.452506786e-13
1.387810877e-12
2.412871898e-12
3.400587889e-12
4.331382083e-12
5.186265659e-12
5.947224249e-12
6.597663549e-12
7.122888788e-12
7.510593203e-12
7.751318367e-12
7.838849138e-12
7.77050905e-12
7.54732841e-12
7.174067027e-12
6.659085199e-12
6.014068736e-12
5.253624742e-12
4.39477452e-12
3.456375658e-12
2.458508098e-12
1.421858724e-12
3.67134276e-13
-6.854731594e-13
-1.716751239e-12
-2.708853775e-12
-3.645606677e-12
-4.512736401e-12
-5.298028173e-12
-5.991422754e-12
-6.5850606e-12
-7.073280685e-12
-7.452579168e-12
-7.721531346e-12
-7.880677245e-12
-7.932371918e-12
-7.880599968e-12
-7.730756499e-12
-7.489398486e-12
-7.163973594e-12
-6.762536772e-12
-6.293467222e-12
-5.765200093e-12
-5.185987371e-12
-4.563701258e-12
-3.905690841e-12
-3.218698086e-12
-2.508835611e-12
-1.781622676e-12
-1.042071673e-12
-2.948137051e-13
4.557514668e-13
1.205296249e-12
1.949412492e-12
2.683479133e-12
3.402561375e-12
4.101349737e-12
4.774143357e-12
5.414878837e-12
6.017202327e-12
6.574579918e-12
7.080439161e-12
7.528333249e-12
7.912118347e-12
8.22613432e-12
8.465379582e-12
8.625670766e-12
8.703779861e-12
8.697541996e-12
8.605929325e-12
8.429088027e-12
8.168337572e-12
7.826133908e-12
7.405999771e-12
6.912427567e-12
6.350761573e-12
5.727067055e-12
5.04799435e-12
4.320645268e-12
3.552448117e-12
2.751046191e-12
1.924202381e-12
1.079720182e-12
2.253800791e-13
-6.311125638e-13
-1.482171889e-12
-2.320373366e-12
-3.138497442e-12
-3.929578754e-12
-4.686963136e-12
-5.404372803e-12
-6.075978373e-12
-6.69647469e-12
-7.261156403e-12
-7.765988308e-12
-8.207665336e-12
-8.583658052e-12
-8.89224034e-12
-9.132497587e-12
-9.304315346e-12
-9.40835027e-12
-9.44598622e-12
-9.419279901e-12
-9.33090051e-12
-9.184067781e-12
-8.982492298e-12
-8.730320618e-12
-8.432086006e-12
-8.092664622e-12
-7.717234205e-12
-7.311232378e-12
-6.88030955e-12
-6.430271796e-12
-5.967009462e-12
-5.496407529e-12
-5.024236702e-12
-4.556025065e-12
-4.096913371e-12
-3.651499132e-12
-3.223677599e-12
-2.81648875e-12
-2.431981518e-12
-2.071106332e-12
-1.733647277e-12
-1.41820242e-12
-1.122220138e-12
-8.420941431e-13
-5.733181732e-13
-3.106948682e-13
-4.859152899e-14
2.187706243e-13
4.970082925e-13
7.912676771e-13
1.105934261e-12
1.444379845e-12
1.808763632e-12
2.199902287e-12
2.617217942e-12
3.058769609e-12
3.521366456e-12
4.00075573e-12
4.491872229e-12
4.989131021e-12
5.486741081e-12
5.979016247e-12
6.460658908e-12
6.926993731e-12
7.374134241e-12
7.79906927e-12
8.199664815e-12
8.574583981e-12
8.923136197e-12
9.24507303e-12
9.540353318e-12
9.808903285e-12
1.005039709e-11
1.026408084e-11
1.044865882e-11
1.060225196e-11
1.072243376e-11
1.080633849e-11
1.085083165e-11
1.085272632e-11
1.080902668e-11
1.071717898e-11
1.057531188e-11
1.038244986e-11
1.01386872e-11
9.845313583e-12
9.504883844e-12
9.121224789e-12
8.699375333e-12
8.245451544e-12
7.766431886e-12
7.269859257e-12
6.763459333e-12
6.254687319e-12
5.750222275e-12
5.255447935e-12
4.773970763e-12
4.30724201e-12
3.85435832e-12
3.412114365e-12
2.975368137e-12
2.537754377e-12
2.092739129e-12
1.634956e-12
1.161706987e-12
6.744508986e-13
1.800515363e-13
-3.084691079e-13
-7.719301875e-13
-1.185963605e-12
-1.523101399e-12
-1.756002889e-12
-1.861694099e-12
-1.826518466e-12
-1.651320398e-12
-1.356225392e-12
-9.842681226e-13
-6.030747525e-13
-3.038522577e-13
-1.970853672e-13
-4.046029172e-13
-1.048028072e-12
-2.234066375e-12
-4.037563128e-12
-6.483736964e-12
-9.531418861e-12
-1.305943027e-11
-1.685837764e-11
-2.063007334e-11
-2.399654861e-11
-2.652021589e-11
-2.773666186e-11
-2.720136383e-11
-2.455424934e-11
-1.960007592e-11
-1.240619209e-11
-3.30830202e-12
7.324031303e-12
1.396911823e-11
1.478651474e-11
1.552619104e-11
1.624958823e-11
1.696949048e-11
1.76874436e-11
1.84016433e-11
1.91105581e-11
1.981287918e-11
2.050774161e-11
2.119446849e-11
2.187237741e-11
2.254079802e-11
2.319893418e-11
2.384596339e-11
2.448105439e-11
2.510329644e-11
2.571176249e-11
2.630549047e-11
2.688350619e-11
2.744478237e-11
2.798821747e-11
2.851272531e-11
2.901713953e-11
2.950030218e-11
2.996089434e-11
3.03976601e-11
3.080921691e-11
3.119419557e-11
3.155106974e-11
3.187834433e-11
3.217438256e-11
3.243752081e-11
3.266601663e-11
3.285799347e-11
3.301155487e-11
3.312469245e-11
3.319526488e-11
3.322107094e-11
3.319979177e-11
3.312897141e-11
3.300603614e-11
3.282827068e-11
3.259285595e-11
3.229676915e-11
3.193684127e-11
3.150976587e-11
3.101201125e-11
3.043984537e-11
2.978937245e-11
2.90564235e-11
2.82366273e-11
2.732531819e-11
2.6317612e-11
2.520830046e-11
2.399187116e-11
2.26624773e-11
2.121392518e-11
1.963966169e-11
1.79327307e-11
1.608571537e-11
1.409080516e-11
1.19396483e-11
9.623432508e-12
7.132751573e-12
4.457678736e-12
1.587610593e-12
-1.488691684e-12
-4.783135612e-12
-8.308426844e-12
-1.207800224e-11
-1.610615577e-11
-2.040803765e-11
-2.499979803e-11
-2.989848813e-11
-3.512230195e-11
-4.069045175e-11
-4.66233829e-11
-5.294274036e-11
-5.96715084e-11
-6.683402339e-11
-7.445607551e-11
-8.256502272e-11
-9.118973411e-11
-1.003608986e-10
-1.101108736e-10
-1.204739672e-10
-1.314863964e-10
-1.431864174e-10
-1.55614488e-10
-1.688132884e-10
-1.828278426e-10
-1.977056575e-10
-2.134967824e-10
-2.302539472e-10
-2.480326896e-10
-2.66891397e-10
-2.868915145e-10
-3.08097593e-10
-3.305774415e-10
-3.544022359e-10
-3.796465973e-10
-4.063888216e-10
-4.347108295e-10
-4.646984616e-10
-4.96441482e-10
-5.300336776e-10
-5.655730771e-10
-6.031619819e-10
-6.429070773e-10
-6.849195666e-10
-7.29315256e-10
-7.762146176e-10
-8.257429545e-10
-8.780304051e-10
-9.332120849e-10
-9.914280711e-10
-1.052823626e-09
-1.117549026e-09
-1.185759793e-09
-1.257616632e-09
-1.333285499e-09
-1.412937582e-09
-1.496749303e-09
-1.584902356e-09
-1.67758355e-09
-1.774984952e-09
-1.87730364e-09
-1.984741794e-09
-2.097506475e-09
-2.215809585e-09
-2.339867748e-09
-2.469902126e-09
-2.606138329e-09
-2.748806117e-09
-2.898139268e-09
-3.054375422e-09
-3.217755702e-09
-3.388524544e-09
-3.566929435e-09
-3.753220475e-09
-3.947650198e-09
-4.150473135e-09
-4.361945541e-09
-4.582324852e-09
-4.811869461e-09
-5.0508381e-09
-5.299489564e-09
-5.558082168e-09
-5.826873216e-09
-6.10611859e-09
-6.396072135e-09
-6.696985259e-09
-7.009106217e-09
-7.332679703e-09
-7.667946157e-09
-8.015141245e-09
-8.374495299e-09
-8.746232596e-09
-9.13057088e-09
-9.527720697e-09
-9.937884751e-09
-1.036125742e-08
-1.079802392e-08
-1.124835994e-08
-1.171243098e-08
-1.219039159e-08
-1.268238506e-08
-1.318854265e-08
-1.370898316e-08
-1.424381239e-08
-1.479312248e-08
-1.535699171e-08
-1.593548382e-08
-1.65286476e-08
-1.713651659e-08
-1.775910871e-08
-1.839642577e-08
-1.904845339e-08
-1.971516071e-08
-2.039650001e-08
-2.109240677e-08
-2.180279951e-08
-2.252757965e-08
-2.326663149e-08
-2.401982252e-08
-2.478700311e-08
-2.556800709e-08
-2.636265164e-08
-2.717073782e-08
-2.799205084e-08
-2.88263604e-08
-2.967342131e-08
-3.053297391e-08
-3.140474484e-08
-3.22884477e-08
-3.318378368e-08
-3.409044256e-08
-3.500810363e-08
-3.593643656e-08
-3.687510253e-08
-3.782375546e-08
-3.878204297e-08
-3.974960823e-08
-4.072609051e-08
-4.171112738e-08
-4.270435599e-08
-4.370541448e-08
-4.471394394e-08
-4.572959024e-08
-4.67520054e-08
-4.778085038e-08
-4.881579605e-08
-4.985652632e-08
-5.090273949e-08
-5.195415093e-08
-5.301049569e-08
-5.40715303e-08
-5.513703569e-08
-5.620681966e-08
-5.728071977e-08
-5.835860601e-08
-5.944038342e-08
-6.052599545e-08
-6.161542679e-08
-6.270870657e-08
-6.380591141e-08
-6.490716912e-08
-6.60126619e-08
-6.712262948e-08
-6.823737351e-08
-6.935726091e-08
-7.048272732e-08
-7.161428174e-08
-7.275250969e-08
-7.389807817e-08
-7.505173933e-08
-7.621433503e-08
-7.738680143e-08
-7.857017315e-08
-7.97655881e-08
-8.097429251e-08
-8.219764566e-08
-8.343712465e-08
-8.46943298e-08
-8.597099022e-08
-8.726896829e-08
-8.859026553e-08
-8.993702921e-08
-9.131155601e-08
-9.271629963e-08
-9.415387639e-08
-9.562707055e-08
-9.713884108e-08
-9.869232831e-08
-1.002908601e-07
-1.019379578e-07
-1.036373442e-07
-1.053929484e-07
-1.072089114e-07
-1.090895909e-07
-1.110395285e-07
-1.130638736e-07
-1.151530981e-07
-1.173284124e-07
-1.196062984e-07
-1.220111515e-07
-1.245101826e-07
-1.271093414e-07
-1.298153186e-07
-1.326350835e-07
-1.355759663e-07
-1.386456526e-07
-1.418522007e-07
-1.452040579e-07
-1.487100726e-07
-1.523794379e-07
-1.562258865e-07
-1.603200537e-07
-1.646160701e-07
-1.691239994e-07
-1.738553839e-07
-1.788066817e-07
-1.839928048e-07
-1.894368426e-07
-1.951516247e-07
-2.011503651e-07
-2.074468697e-07
-2.140554818e-07
-2.209910858e-07
-2.282691272e-07
-2.359056306e-07
-2.439172193e-07
-2.523211445e-07
-2.611353022e-07
-2.703782631e-07
-2.800692997e-07
-2.902284108e-07
-3.008763541e-07
-3.120346784e-07
-3.237257542e-07
-3.359728136e-07
-3.487999839e-07
-3.622323334e-07
-3.762959088e-07
-3.910177863e-07
-4.064261176e-07
-4.225501828e-07
-4.394204487e-07
-4.570686252e-07
-4.755277347e-07
-4.948321784e-07
-5.15017814e-07
-5.361220356e-07
-5.581838682e-07
-5.812440608e-07
-6.053452008e-07
-6.305318327e-07
-6.56850595e-07
-6.84350379e-07
-7.13082498e-07
-7.431008995e-07
-7.744623966e-07
-8.072269519e-07
-8.414579985e-07
-8.77222845e-07
-9.145931398e-07
-9.53645451e-07
-9.944619601e-07
-1.037131325e-06
-1.081749735e-06
-1.128422217e-06
-1.177264259e-06
-1.228403832e-06
-1.281983914e-06
-1.338165646e-06
-1.397132291e-06
-1.459094203e-06
-1.524295062e-06
-1.593019739e-06
-1.665604149e-06
-1.742447721e-06
-1.824029049e-06
-1.91092565e-06
-2.003838864e-06
-2.103625227e-06
-2.21133605e-06
-2.328267301e-06
-2.456022511e-06
-2.596592085e-06
-2.75245328e-06
-2.926696251e-06
-3.123182933e-06
-3.346747266e-06
-3.603447529e-06
-3.90088428e-06
-4.248600879e-06
-4.658587982e-06
-5.145918885e-06
-5.729549498e-06
-6.433325379e-06
-7.287249306e-06
-8.329076232e-06
-9.606319973e-06
-1.117877715e-05
-1.312170118e-05
-1.552979243e-05
-1.852221353e-05
-2.224889119e-05
-2.689843234e-05
-3.270806545e-05
-3.997612086e-05
-4.907769345e-05
-6.048429267e-05
-7.478848482e-05
-9.273478519e-05
-0.0001152583664
-0.0001435335413
-0.0001790344558
-0.000223611029
-0.000279583915
-0.0003498631766
-0.000438096493
-0.0005488541136
-0.0006878594774
-0.0008622765271
-0.001081067292
-0.001355436449
-0.001699383361
-0.002130386655
-0.002670251921
-0.003346159643
-0.004191958317
-0.005249756807
-0.006571880642
-0.008223269194
-0.01028440454
-0.01285487785
-0.01605771605
-0.02004460785
-0.02500218564
-0.03115953352
-0.03879710279
-0.04825721838
-0.05995635105
-0.07439930147
-0.09219538946
-0.1140766849
-0.1409179615
-0.1737584808
-0.2138244414
-0.2625515244
-0.3216059541
-0.3929019841
-0.4786137679
-0.5811767671
-0.7032763141
-0.8478171293
-1.017868749
-1.216580892
-1.447062955
-1.712222451
-2.014558613
-2.355909649
-2.73715532
-3.15788062
-3.616011273
-4.107436174
-4.625638631
-5.16136003
-5.70232436
-6.233051542
-6.734783233
-7.185546179
-7.5603438
-7.831485294
-7.969010272
-7.941134001
-7.714760847
-7.255794156
-6.529606079
-5.501310602
-4.136070941
-2.399815484
-0.2627438476
2.287384634
5.206124283
8.714399662
12.33916168
18.54295342
24.63132543
30.14644197
26.61573847
36.2605746
43.10967803
48.96430691
54.2901627
58.93894298
62.71118032
65.2642116
66.89659577
68.04336638
63.76419699
65.38429969
40.19991084
32.64074447
18.45886594
-1.208138949
-32.4297269
-67.90071864
-111.6897046
-161.7825459
-192.2450772
-243.4689805
-288.0081958
-321.9249657
-343.3405474
-353.1109773
-353.7478175
-322.7856513
-311.0828473
-288.3211454
-269.9131289
-250.3257746
-230.0974396
-210.0103571
-190.7842041
-169.8411209
-142.7248436
-119.2773582
-98.97798278
-81.02743799
-65.98785743
-54.75971035
-46.66642858
-40.81603733
-36.53717802
-29.47803404
-23.78602156
-20.54659347
-17.38948874
-14.53302827
-12.06974227
-10.00657946
-8.307552049
-6.890449657
-5.749546834
-4.809422829
-4.03254734
-3.38840915
-2.852537328
-2.405380173
-2.03127543
-1.717603034
-1.454122233
-1.232474138
-1.04576757
-0.8883111153
-0.7553812036
-0.6430437388
-0.5480140258
-0.4675447392
-0.3993352381
-0.3414571355
-0.2922929025
-0.2504849056
-0.2148929442
-0.1845587649
-0.158676482
-0.136567812
-0.1176613714
-0.1014753739
-0.08760316887
-0.0757011568
-0.0654786899
-0.05668963005
-0.04912528947
-0.04260852452
-0.03698879065
-0.03213799859
-0.02794703866
-0.02432286231
-0.02118602888
-0.01846864084
-0.01611260406
-0.01406815996
-0.01229264565
-0.0107494453
-0.009407102212
-0.008238566002
-0.007220553677
-0.006333006649
-0.005558628833
-0.004882493248
-0.004291706615
-0.003775123081
-0.003323099638
-0.00292728693
-0.002580450164
-0.002276315629
-0.002009439049
-0.001775092541
-0.001569167474
-0.001388090904
-0.001228753638
-0.001088448245
-0.0009648156014
-0.0008557987518
-0.0007596030628
-0.0006746617752
-0.0005996062094
-0.0005332399722
-0.0004745166149
-0.0004225202682
-0.0003764488442
-0.0003355994589
-0.000299355773
-0.0002671769904
-0.0002385882948
-0.0002131725301
-0.0001905629583
-0.0001704369535
-0.0001525105066
-0.0001365334353
-0.0001222852053
-0.000109571283
-9.821995274e-05
-8.807953394e-05
-7.90159504e-05
-7.091060296e-05
-6.365850916e-05
-5.716667052e-05
-5.135265988e-05
-4.614334834e-05
-4.147382396e-05
-3.728642336e-05
-3.352988767e-05
-3.015861998e-05
-2.713203178e-05
-2.44139692e-05
-2.197220655e-05
-1.977800133e-05
-1.780570115e-05
-1.60323979e-05
-1.443762157e-05
-1.300307035e-05
-1.17123714e-05
-1.055086974e-05
-9.505441506e-06
-8.564327865e-06
-7.71698802e-06
-6.953968579e-06
-6.266787954e-06
-5.647833257e-06
-5.090269363e-06
-4.58795607e-06
-4.135376403e-06
-3.727571681e-06
-3.360083638e-06
-3.028902926e-06
-2.730422984e-06
-2.461398687e-06
-2.218909832e-06
-2.000327924e-06
-1.803286643e-06
-1.625655367e-06
-1.465515299e-06
-1.321138861e-06
-1.190969348e-06
-1.073604836e-06
-9.677821456e-07
-8.723633008e-07
-7.863228767e-07
-7.087371405e-07
-6.387737112e-07
-5.756817042e-07
-5.187851915e-07
-4.674751376e-07
-4.212022415e-07
-3.794715154e-07
-3.418366354e-07
-3.078954906e-07
-2.772852684e-07
-2.496793092e-07
-2.247830522e-07
-2.023308275e-07
-1.820832507e-07
-1.638243461e-07
-1.473594835e-07
-1.32513187e-07
-1.191269474e-07
-1.070581292e-07
-9.61779799e-08
-8.637033784e-08
-7.753051241e-08
-6.956388605e-08
-6.238538263e-08
-5.591787041e-08
-5.009214564e-08
-4.484549333e-08
-4.012134026e-08
-3.58687184e-08
-3.204165497e-08
-2.859839104e-08
-2.550143669e-08
-2.271714699e-08
-2.021483073e-08
-1.796675825e-08
-1.594805937e-08
-1.413624019e-08
-1.251091716e-08
-1.105370543e-08
-9.747987384e-09
-8.578888141e-09
-7.532803355e-09
-6.597490431e-09
-5.761932367e-09
-5.016157174e-09
-4.351315684e-09
-3.759161572e-09
-3.232381998e-09
-2.764306379e-09
-2.348987036e-09
-1.980966908e-09
-1.655414147e-09
-1.367960645e-09
-1.114724528e-09
-8.920829988e-10
-6.968148033e-10
-5.259845542e-10
-3.769461873e-10
-2.475020221e-10
-1.353947339e-10
-3.876276051e-11
4.413174169e-11
1.147918946e-10
1.74590318e-10
2.24809567e-10
2.665225135e-10
3.007619367e-10
3.284277588e-10
3.502763378e-10
3.670467419e-10
3.793899294e-10
3.879219533e-10
3.931067246e-10
3.954209069e-10
3.952225671e-10
3.92911214e-10
3.888014669e-10
3.831604623e-10
3.762393793e-10
3.683009987e-10
3.594513077e-10
3.499092175e-10
3.398505946e-10
3.29379555e-10
3.186022463e-10
3.076335408e-10
2.965972271e-10
2.855762531e-10
2.74594446e-10
2.637091116e-10
2.529757196e-10
2.423732154e-10
2.319913477e-10
2.218330686e-10
2.119438966e-10
2.023393446e-10
1.930071395e-10
1.83991325e-10
1.752320124e-10
1.667792872e-10
1.586398729e-10
1.508309523e-10
1.433277414e-10
1.360674153e-10
1.291222162e-10
1.225262657e-10
1.161887533e-10
1.1014742e-10
1.04374184e-10
9.888638594e-11
9.365151773e-11
8.865018108e-11
8.386467236e-11
7.930848335e-11
7.497599811e-11
7.085420921e-11
6.69239906e-11
6.320015808e-11
5.971609788e-11
5.6395946e-11
5.324178063e-11
5.026803133e-11
4.742228441e-11
4.474110026e-11
4.222050879e-11
3.983782835e-11
3.756998687e-11
3.541158839e-11
3.336515476e-11
3.143866296e-11
2.960368804e-11
2.788911005e-11
2.626239697e-11
2.472245937e-11
2.326217177e-11
2.190045885e-11
2.061061192e-11
1.940010487e-11
1.825209526e-11
1.716845677e-11
1.614974188e-11
1.517711672e-11
1.428369136e-11
1.343734585e-11
1.263506084e-11
1.188945068e-11
1.117146063e-11
1.051210486e-11
9.894516093e-12
9.30394568e-12
8.743785184e-12
8.222347018e-12
7.718991739e-12
7.263605565e-12
6.840166534e-12
6.425829931e-12
6.029936104e-12
5.661016129e-12
5.313414645e-12
4.975119104e-12
4.682529314e-12
4.397062742e-12
4.129949344e-12
3.87735361e-12
3.649621266e-12
3.433643916e-12
3.226389116e-12
3.033582519e-12
2.838763707e-12
2.643455996e-12
2.477106962e-12
2.338691036e-12
2.186148626e-12
2.058637535e-12
1.939374043e-12
1.825240868e-12
1.726044322e-12
1.624630918e-12
1.515323171e-12
1.427954653e-12
1.339121203e-12
1.2531136e-12
1.187458143e-12
1.111005827e-12
1.039668654e-12
9.70149268e-13
9.178889035e-13
8.637835172e-13
8.225886308e-13
7.752600325e-13
7.25521303e-13
6.736381067e-13
6.201051246e-13
5.811560504e-13
5.618646915e-13
5.378645842e-13
5.191165251e-13
4.934508019e-13
4.65318953e-13
4.397995257e-13
4.092051474e-13
3.738496184e-13
3.425477123e-13
3.119664816e-13
2.938945628e-13
2.773451286e-13
2.612409314e-13
2.534553343e-13
2.41728285e-13
2.290381826e-13
2.150613527e-13
2.001257809e-13
1.854223372e-13
1.739162527e-13
1.620685073e-13
1.727075643e-13
1.790018455e-13
1.663669199e-13
1.541365347e-13
1.392041143e-13
1.269821902e-13
1.230464763e-13
1.272969736e-13
1.219400666e-13
1.064867081e-13
9.366672224e-14
8.075920201e-14
7.225378611e-14
7.52944593e-14
7.127152738e-14
6.933362483e-14
5.880648813e-14
4.965117944e-14
4.461074692e-14
3.986678937e-14
3.924704206e-14
3.415970708e-14
3.344444722e-14
3.313685949e-14
2.789884132e-14
2.971416265e-14
3.745472696e-14
4.047935816e-14
4.327134008e-14
4.179265736e-14
3.79156824e-14
3.781471393e-14
3.615747233e-14
3.601940352e-14
3.38876208e-14
2.621085427e-14
2.313995462e-14
1.517851648e-14
1.273088778e-14
9.045090689e-15
8.753976614e-15
5.088079947e-15
7.01344471e-15
1.437481583e-14
1.29736896e-14
1.265652698e-14
1.27692573e-14
1.032175654e-14
6.763562361e-15
1.020090803e-14
8.804450923e-15
2.003501707e-15
-3.780154781e-16
-7.830710967e-15
-9.403000842e-15
-7.23097389e-15
2.170119282e-15
5.711344217e-15
7.867785472e-15
9.228785007e-15
1.2240971e-14
1.14058252e-14
7.553441106e-15
2.54251241e-15
1.529831184e-15
6.467489735e-16
2.141576718e-15
3.146154581e-15
1.161203804e-15
-2.666643281e-15
-8.077641122e-15
-2.893837346e-15
3.590427242e-15
1.069223826e-14
1.108137929e-14
6.501380248e-15
7.253148558e-16
2.146959913e-15
6.08801147e-15
1.239914236e-14
1.182370904e-14
8.917532172e-15
1.122160294e-14
1.239437993e-14
7.830110291e-15
1.95290382e-15
-6.826164135e-16
-4.014794603e-15
-5.337103362e-15
-3.942132583e-15
-2.511866417e-15
1.676754573e-15
7.277474212e-15
5.781333532e-15
9.635531659e-15
1.084067171e-14
1.001466348e-14
6.654056556e-15
4.412021028e-15
6.957225713e-15
4.033278552e-15
1.746938936e-15
1.500977311e-16
-9.231540151e-16
-4.427986182e-15
-7.569740178e-15
-4.238832889e-15
-2.662681974e-15
-2.319115037e-15
-4.499352117e-16
1.011068327e-15
3.069568352e-15
3.509584686e-15
2.232652568e-15
1.420996486e-15
4.193582564e-16
-1.791271957e-15
-1.3924565e-15
3.496307599e-15
8.227733492e-15
1.24186854e-14
1.49262659e-14
1.338351059e-14
9.048855451e-15
5.371550439e-15
6.166591035e-15
1.382551438e-15
1.132405438e-15
8.557273703e-16
8.97507093e-16
2.620238979e-15
2.097351736e-15
6.995890812e-16
2.59240205e-16
1.203355593e-15
1.109751503e-15
-9.718268525e-16
-1.572619213e-15
-2.1384357e-15
1.389218088e-16
2.543637231e-15
2.350101436e-15
2.185970551e-15
1.288885447e-15
-7.70056013e-16
-2.233994825e-15
-1.4942975e-16
1.545881151e-15
-6.514603247e-16
1.676851328e-15
3.901284467e-15
6.076972489e-15
-7.397819643e-15
6.189883839e-15
-4.591109875e-15
-1.542336127e-15
4.068774521e-15
-4.360190049e-15
4.907504624e-15
9.111058132e-15
-3.973596892e-15
-6.886277458e-15
5.96162997e-15
-3.573711855e-15
-2.737456548e-15
-2.614639881e-15
2.146911301e-15
1.489863424e-15
-1.409724322e-15
1.468878452e-15
1.206451155e-15
2.129029759e-15
-8.38177183e-16
7.133071692e-17
-8.270648344e-16
8.365725232e-16
-3.622348424e-16
1.410259493e-16
1.076160381e-16
-9.252346195e-17
-7.859917851e-19
6.58036879e-17
1.637084858e-18
9.614971218e-17
-6.334763052e-18
1.326612513e-16
2.025913773e-16
1.870236966e-16
-3.938484538e-17
1.747332856e-17
3.222691498e-17
2.27218232e-18
-1.807026954e-17
3.545817008e-17
1.990064263e-17
5.328225699e-18
4.666245455e-17
-1.283194749e-16
-1.659452237e-16
2.5445067e-16
-3.654051936e-16
-8.261611729e-17
-2.280028619e-17
-1.748490466e-17
-1.270231596e-17
1.600634006e-17
1.029514078e-16
-1.216399079e-16
9.021623747e-18
2.39983243e-16
1.444089336e-16
-1.623957161e-16
-2.198233165e-16
-2.272640959e-17
5.882946555e-17
-1.514611817e-16
-4.124625353e-17
-2.767847061e-17
1.952518914e-17
-5.046382134e-19
2.164893993e-19
-1.003529664e-17
-1.502514887e-18
1.914769255e-18
4.086189798e-17
2.298426559e-17
-1.603216516e-17
-2.498913292e-17
9.201959411e-17
-4.479342694e-17
5.223873357e-17
-8.610794515e-17
4.75044193e-17
1.202047433e-18
-1.659896881e-17
1.129396232e-17
2.342367905e-17
-1.918405603e-17
-2.448749219e-18
-8.412948373e-18
-8.755981555e-18
-1.505047738e-17
2.55291063e-17
-2.023897946e-17
2.510839415e-18
-1.467601509e-17
2.441632747e-18
1.994654844e-19
-4.645953356e-18
-3.511705737e-18
-5.375009968e-19
1.97324485e-18
-2.839685596e-19
1.393513735e-19
1.303966581e-18
-9.600991278e-19
-1.696273067e-18
-3.743795277e-18
-1.654523109e-18
-3.168213669e-18
3.570925425e-18
9.904739953e-20
5.828146661e-19
7.126012418e-19
-7.217823851e-19
1.018844141e-18
-2.428189132e-18
-5.718224396e-19
-2.323984136e-19
-1.346254298e-19
7.64959095e-19
-8.843721177e-20
1.535703387e-19
-1.827476312e-19
-4.949782506e-19
7.397635715e-20
-8.242267355e-19
9.429490432e-20
-5.559033322e-19
3.949854032e-19
-7.746084916e-19
-4.0848076e-19
-2.532921925e-20
-4.566434276e-19
9.108247969e-19
8.407453784e-20
-2.309265625e-19
3.153314152e-19
-2.48580786e-18
-1.868850032e-19
2.653282303e-18
4.133277058e-19
-8.993732354e-19
8.56502902e-21
-2.522341742e-19
8.252067048e-19
9.022028679e-19
-2.983060848e-18
-2.431017623e-18
4.7634517e-18
2.155822147e-18
2.070573465e-18
1.843277167e-18
-1.010659573e-18
-6.86871922e-18
-4.179634459e-18
-2.851866328e-18
4.370336548e-19
-7.470473916e-19
-2.766364914e-21
4.950803954e-18
8.425119375e-19
4.724980361e-18
-9.099934968e-19
4.233727697e-18
4.932601691e-18
3.565794255e-19
-1.140805115e-18
-3.717177819e-19
8.848413529e-19
8.203137694e-19
4.069511013e-18
-1.638477712e-18
-4.708745535e-19
-2.991416616e-19
-9.774684723e-19
-1.55938765e-18
-9.788029007e-19
1.601964246e-18
1.678394795e-18
3.452657877e-18
2.677495109e-18
2.611923903e-18
2.021871229e-18
2.981902269e-18
2.271112983e-18
5.606842998e-18
3.06768372e-19
1.439584554e-18
-1.226252235e-18
2.948707901e-18
-7.88638114e-19
2.782858127e-18
3.406382013e-18
-6.341756661e-19
3.61133659e-18
2.289455769e-18
2.023064235e-18
4.96466778e-19
1.071425364e-18
1.840107923e-18
-3.103780445e-18
-1.093587653e-18
-1.937333497e-18
3.14975702e-19
-1.066018221e-18
-1.643731108e-18
-1.548771742e-18
-1.147461333e-18
1.354302486e-18
6.980629688e-19
-8.899626004e-19
1.566132157e-18
1.713746675e-18
-2.161041171e-19
-4.530952166e-19
-6.262187385e-19
2.750507364e-18
-7.361778278e-19
7.714182286e-19
-6.996972509e-19
-4.112591827e-20
3.671199552e-19
2.079434687e-19
-4.33737701e-19
1.258116308e-20
-3.517902014e-19
1.6005463e-19
2.867615157e-19
-8.661688987e-20
-1.870482919e-19
-4.04509054e-19
-6.197175323e-19
-7.659390489e-19
4.687211894e-20
5.575087047e-19
-1.018080665e-18
-2.596409172e-19
-3.3985767e-19
-3.052860052e-18
-2.271381271e-18
-3.42404094e-19
-5.189071309e-18
-3.607462168e-20
-6.657467416e-19
-3.311825406e-18
-9.040256507e-19
-5.161125698e-19
-6.155914938e-18
-2.502623211e-18
5.785569802e-19
-2.18912785e-19
)
;

boundaryField
{
    inlet
    {
        type            calculated;
        value           uniform 0;
    }
    outlet
    {
        type            calculated;
        value           uniform -2.189127883e-19;
    }
    wall
    {
        type            empty;
    }
}


// ************************************************************************* //
