/*--------------------------------*- C++ -*----------------------------------*\
  =========                 |
  \\      /  F ield         | OpenFOAM: The Open Source CFD Toolbox
   \\    /   O peration     | Website:  https://openfoam.org
    \\  /    A nd           | Version:  7
     \\/     M anipulation  |
\*---------------------------------------------------------------------------*/
FoamFile
{
    version     2.0;
    format      ascii;
    class       volScalarField;
    location    "0.000558243009";
    object      ddt0(rho,C2H);
}
// * * * * * * * * * * * * * * * * * * * * * * * * * * * * * * * * * * * * * //

dimensions      [1 -3 -1 0 0 0 0];

internalField   nonuniform List<scalar> 
1500
(
-5.945089762e-42
9.827638479e-42
1.270317803e-41
1.08528859e-41
7.516973235e-42
4.534629949e-42
2.439734235e-42
1.155099204e-42
4.221117644e-43
-8.283906036e-46
-2.734858647e-43
-4.789988979e-43
-6.526182943e-43
-8.056257685e-43
-9.394605975e-43
-1.052223933e-42
-1.141415799e-42
-1.204993989e-42
-1.241737304e-42
-1.251322524e-42
-1.234274739e-42
-1.191859029e-42
-1.125953905e-42
-1.03892474e-42
-9.335048557e-43
-8.126883456e-43
-6.796305512e-43
-5.37557449e-43
-3.896824166e-43
-2.391318131e-43
-8.888355997e-44
5.828014244e-44
1.998041501e-43
3.333759039e-43
4.569273151e-43
5.686284388e-43
6.668758593e-43
7.502820202e-43
8.176685553e-43
8.68066696e-43
9.007247434e-43
9.151233777e-43
9.109951786e-43
8.883469046e-43
8.474788762e-43
7.890004021e-43
7.138362384e-43
6.232234453e-43
5.186961947e-43
4.020597019e-43
2.753529922e-43
1.408026789e-43
7.712925498e-46
-1.423000933e-43
-2.859490291e-43
-4.277483273e-43
-5.653590211e-43
-6.96577783e-43
-8.193787729e-43
-9.319479534e-43
-1.032710552e-42
-1.1203518e-42
-1.19383001e-42
-1.252385405e-42
-1.295540336e-42
-1.323096922e-42
-1.335126728e-42
-1.331957173e-42
-1.314152376e-42
-1.282488425e-42
-1.237925756e-42
-1.181576644e-42
-1.114670075e-42
-1.038515531e-42
-9.544659241e-43
-8.638813831e-43
-7.680970127e-43
-6.683935923e-43
-5.659745256e-43
-4.619490048e-43
-3.573211908e-43
-2.529871287e-43
-1.49737444e-43
-4.826502969e-44
5.082205422e-44
1.469863281e-43
2.39743737e-43
3.286475845e-43
4.132734689e-43
4.932065873e-43
5.680318545e-43
6.373281534e-43
7.006662296e-43
7.576101928e-43
8.077224133e-43
8.505717748e-43
8.85744051e-43
9.128537116e-43
9.315574059e-43
9.415662018e-43
9.42658807e-43
9.346921486e-43
9.176108795e-43
8.914533049e-43
8.563561211e-43
8.125544184e-43
7.603799413e-43
7.002557795e-43
6.326891486e-43
5.582615133e-43
4.77618396e-43
3.914570873e-43
3.005161753e-43
2.055634943e-43
1.073870003e-43
6.785472453e-45
-9.543823959e-44
-1.984834302e-43
-3.015560515e-43
-4.038730864e-43
-5.046656014e-43
-6.031830189e-43
-6.986966708e-43
-7.905049057e-43
-8.779383965e-43
-9.603666871e-43
-1.037205022e-42
-1.107921598e-42
-1.172044806e-42
-1.229169536e-42
-1.278963016e-42
-1.321168767e-42
-1.355609179e-42
-1.382186299e-42
-1.400880895e-42
-1.41174968e-42
-1.414921423e-42
-1.410591985e-42
-1.399018841e-42
-1.380516056e-42
-1.355448058e-42
-1.324225397e-42
-1.287300621e-42
-1.245163983e-42
-1.198341153e-42
-1.147389526e-42
-1.092895466e-42
-1.035470362e-42
-9.757451906e-43
-9.143645833e-43
-8.519781457e-43
-7.892300209e-43
-7.26746906e-43
-6.651233999e-43
-6.049078049e-43
-5.465854016e-43
-4.905634856e-43
-4.371569941e-43
-3.865769408e-43
-3.389207843e-43
-2.941691125e-43
-2.521849935e-43
-2.127195894e-43
-1.754236393e-43
-1.398631327e-43
-1.055403263e-43
-7.191837339e-44
-3.844894502e-44
-4.600567752e-45
3.011330866e-44
6.610750603e-44
1.037036684e-43
1.431117178e-43
1.844198827e-43
2.275899956e-43
2.724619128e-43
3.187640382e-43
3.661322565e-43
4.141322308e-43
4.622877981e-43
5.101094909e-43
5.571236299e-43
6.028983044e-43
6.470649217e-43
6.893320916e-43
7.294936712e-43
7.674269155e-43
8.030839169e-43
8.364754605e-43
8.676505856e-43
8.96672284e-43
9.235935261e-43
9.484346273e-43
9.711658222e-43
9.916944139e-43
1.009859077e-42
1.025432021e-42
1.038126465e-42
1.04761045e-42
1.053523857e-42
1.055498754e-42
1.053179891e-42
1.04624575e-42
1.034428331e-42
1.017532707e-42
9.954552677e-43
9.682014005e-43
9.359028581e-43
8.98832578e-43
8.574166534e-43
8.122401658e-43
7.640431822e-43
7.137030151e-43
6.621991821e-43
6.105581155e-43
5.59777588e-43
5.107322506e-43
4.640686052e-43
4.200970698e-43
3.78697303e-43
3.392520393e-43
3.006276379e-43
2.612172611e-43
2.190588137e-43
1.720338139e-43
1.181416393e-43
5.58358579e-44
-1.560713676e-44
-9.572413307e-44
-1.825550886e-43
-2.724437435e-43
-3.599990764e-43
-4.382720573e-43
-4.991779153e-43
-5.341785684e-43
-5.352097327e-43
-4.958030716e-43
-4.123192834e-43
-2.851768923e-43
-1.199364955e-43
7.191151488e-44
2.726004157e-43
4.583065414e-43
6.000018326e-43
6.649677805e-43
6.188690114e-43
4.283945608e-43
6.429862575e-44
-4.936287032e-43
-1.251383928e-42
-1.672514716e-42
-1.767992922e-42
-1.84540823e-42
-1.91521571e-42
-1.982924348e-42
-2.050336655e-42
-2.118048283e-42
-2.186320864e-42
-2.255296842e-42
-2.325058451e-42
-2.395648353e-42
-2.467085412e-42
-2.539375209e-42
-2.612518295e-42
-2.68651379e-42
-2.761361189e-42
-2.837061688e-42
-2.913617596e-42
-2.991032333e-42
-3.069310015e-42
-3.148455494e-42
-3.228474665e-42
-3.309373629e-42
-3.39115951e-42
-3.473839845e-42
-3.557423949e-42
-3.641921317e-42
-3.72734319e-42
-3.813701355e-42
-3.901009775e-42
-3.98928292e-42
-4.078537467e-42
-4.168791342e-42
-4.260064122e-42
-4.352377703e-42
-4.445755315e-42
-4.540222556e-42
-4.635807381e-42
-4.73253982e-42
-4.830452454e-42
-4.929580607e-42
-5.029962257e-42
-5.131638578e-42
-5.234653478e-42
-5.339054593e-42
-5.44489296e-42
-5.552223002e-42
-5.661103444e-42
-5.771597057e-42
-5.883770748e-42
-5.997696364e-42
-6.113450173e-42
-6.231114072e-42
-6.350774822e-42
-6.472525128e-42
-6.596463695e-42
-6.72269549e-42
-6.851332168e-42
-6.982492132e-42
-7.116301271e-42
-7.25289347e-42
-7.392410237e-42
-7.535002137e-42
-7.680828368e-42
-7.830058141e-42
-7.982869829e-42
-8.139453077e-42
-8.300008409e-42
-8.464747681e-42
-8.633895508e-42
-8.807689053e-42
-8.986379071e-42
-9.170230696e-42
-9.359524425e-42
-9.554556116e-42
-9.755639074e-42
-9.963103499e-42
-1.017729862e-41
-1.039859316e-41
-1.062737667e-41
-1.086406038e-41
-1.110907867e-41
-1.136289042e-41
-1.162597953e-41
-1.189885807e-41
-1.218206596e-41
-1.247617403e-41
-1.278178499e-41
-1.309953516e-41
-1.343009734e-41
-1.377418216e-41
-1.413254054e-41
-1.45059662e-41
-1.489529791e-41
-1.530142259e-41
-1.57252782e-41
-1.616785641e-41
-1.66302064e-41
-1.711343817e-41
-1.761872646e-41
-1.814731453e-41
-1.870051859e-41
-1.927973282e-41
-1.988643327e-41
-2.052218422e-41
-2.118864309e-41
-2.188756606e-41
-2.262081554e-41
-2.33903661e-41
-2.419831155e-41
-2.504687323e-41
-2.593840779e-41
-2.687541567e-41
-2.786055107e-41
-2.889663087e-41
-2.998664608e-41
-3.113377144e-41
-3.234137938e-41
-3.361304986e-41
-3.495258562e-41
-3.636402493e-41
-3.785165705e-41
-3.942003737e-41
-4.107400375e-41
-4.281869442e-41
-4.465956475e-41
-4.660240848e-41
-4.865337553e-41
-5.081899505e-41
-5.310619578e-41
-5.552232974e-41
-5.807519656e-41
-6.077306795e-41
-6.362471416e-41
-6.663943012e-41
-6.982706405e-41
-7.319804706e-41
-7.676342155e-41
-8.053487283e-41
-8.452476141e-41
-8.874615338e-41
-9.321285575e-41
-9.793944877e-41
-1.029413221e-40
-1.08234707e-40
-1.138367147e-40
-1.197653696e-40
-1.260396463e-40
-1.326795055e-40
-1.397059288e-40
-1.471409545e-40
-1.550077124e-40
-1.633304588e-40
-1.721346086e-40
-1.814467692e-40
-1.9129477e-40
-2.017076939e-40
-2.127159041e-40
-2.243510706e-40
-2.366461939e-40
-2.496356275e-40
-2.633550948e-40
-2.778417079e-40
-2.931339768e-40
-3.092718229e-40
-3.262965824e-40
-3.44251008e-40
-3.631792688e-40
-3.83126942e-40
-4.041410037e-40
-4.262698129e-40
-4.495630902e-40
-4.740718958e-40
-4.998485967e-40
-5.269468323e-40
-5.554214745e-40
-5.85328584e-40
-6.167253567e-40
-6.496700711e-40
-6.842220294e-40
-7.204414878e-40
-7.583895928e-40
-7.981283059e-40
-8.397203266e-40
-8.832290098e-40
-9.287182884e-40
-9.762525811e-40
-1.025896708e-39
-1.077715802e-39
-1.131775217e-39
-1.188140442e-39
-1.246877009e-39
-1.308050413e-39
-1.37172602e-39
-1.437968996e-39
-1.506844228e-39
-1.578416257e-39
-1.652749217e-39
-1.729906787e-39
-1.809952142e-39
-1.892947922e-39
-1.978956226e-39
-2.068038591e-39
-2.160256023e-39
-2.255669005e-39
-2.354337565e-39
-2.456321342e-39
-2.561679664e-39
-2.67047168e-39
-2.782756505e-39
-2.898593368e-39
-3.018041848e-39
-3.141162074e-39
-3.268015017e-39
-3.398662779e-39
-3.533168941e-39
-3.671598961e-39
-3.814020577e-39
-3.960504296e-39
-4.11112391e-39
-4.265957083e-39
-4.42508597e-39
-4.588597893e-39
-4.756586108e-39
-4.92915061e-39
-5.106399004e-39
-5.28844746e-39
-5.475421755e-39
-5.667458373e-39
-5.864705674e-39
-6.067325238e-39
-6.275493208e-39
-6.489401777e-39
-6.709260819e-39
-6.935299558e-39
-7.167768461e-39
-7.406941184e-39
-7.653116709e-39
-7.906621636e-39
-8.167812605e-39
-8.437078933e-39
-8.714845457e-39
-9.001575564e-39
-9.297774439e-39
-9.603992595e-39
-9.920829722e-39
-1.024893872e-38
-1.058903022e-38
-1.094187753e-38
-1.13083219e-38
-1.168927853e-38
-1.208574319e-38
-1.249879939e-38
-1.292962643e-38
-1.337950803e-38
-1.384984125e-38
-1.43421458e-38
-1.48580777e-38
-1.539947489e-38
-1.596860488e-38
-1.656947834e-38
-1.721379736e-38
-1.794063375e-38
-1.881622799e-38
-1.979889541e-38
-2.094310781e-38
-2.236545629e-38
-2.382303018e-38
-2.527318564e-38
-2.670256804e-38
-2.809889599e-38
-2.944989674e-38
-3.074291071e-38
-3.196470986e-38
-3.310206376e-38
-3.414208282e-38
-3.507882475e-38
-3.600269115e-38
-3.742742203e-38
-3.896283556e-38
-4.056851138e-38
-4.231148907e-38
-4.435182919e-38
-4.67249685e-38
-4.935291049e-38
-5.219951491e-38
-5.526667577e-38
-5.856938507e-38
-6.212702301e-38
-6.596127539e-38
-7.009585014e-38
-7.455660217e-38
-7.937174733e-38
-8.457210773e-38
-9.019137877e-38
-9.62664273e-38
-1.028376226e-37
-1.099492071e-37
-1.176497136e-37
-1.259924362e-37
-1.350359615e-37
-1.448447727e-37
-1.554899331e-37
-1.670498683e-37
-1.796112569e-37
-1.932700549e-37
-2.081326697e-37
-2.243173164e-37
-2.419555878e-37
-2.611942744e-37
-2.821974873e-37
-3.051491384e-37
-3.302558505e-37
-3.577503827e-37
-3.878956817e-37
-4.209896826e-37
-4.573710317e-37
-4.974259248e-37
-5.415963168e-37
-5.903898227e-37
-6.443916961e-37
-7.042794056e-37
-7.708404322e-37
-8.449941189e-37
-9.27818609e-37
-1.020584242e-36
-1.124795151e-36
-1.242241353e-36
-1.375064345e-36
-1.525840149e-36
-1.697685049e-36
-1.894391009e-36
-2.120600094e-36
-2.382030493e-36
-2.685771137e-36
-3.040668049e-36
-3.457834051e-36
-3.951325262e-36
-4.539044363e-36
-5.243953952e-36
-6.09571606e-36
-7.132920883e-36
-8.406134362e-36
-9.982090277e-36
-1.194949098e-35
-1.442708202e-35
-1.757495974e-35
-2.1610503e-35
-2.683095945e-35
-3.364566883e-35
-4.262233435e-35
-5.455391192e-35
-7.055597316e-35
-9.220944078e-35
-1.217713963e-34
-1.624888338e-34
-2.190694207e-34
-2.983939632e-34
-4.106051292e-34
-5.707905443e-34
-8.016235807e-34
-1.137576148e-33
-1.631631628e-33
-2.364666898e-33
-3.446511034e-33
-4.914700375e-33
-5.917886716e-33
4.018836439e-34
5.593180267e-32
3.921441217e-31
2.211730711e-30
1.039668547e-29
3.637712532e-29
1.737990387e-28
9.648012532e-28
4.18535146e-27
1.783026711e-26
7.38791466e-26
2.92380071e-25
1.060112143e-24
3.119067121e-24
3.190786956e-24
-5.650884251e-23
-6.545844656e-22
-4.909049236e-21
-3.130312325e-20
-1.824713913e-19
-1.001308908e-18
-5.248027752e-18
-2.6477196e-17
-1.291175664e-16
-6.094545628e-16
-2.77958872e-15
-1.215894099e-14
-5.08700131e-14
-2.045189152e-13
-5.979453221e-13
-1.352895444e-12
-2.517838623e-12
-4.091027094e-12
-6.084653186e-12
-8.541188701e-12
-1.152096452e-11
-1.509973103e-11
-1.93907964e-11
-2.458918385e-11
-3.10277934e-11
-3.923690666e-11
-4.999975307e-11
-6.440953094e-11
-8.393526829e-11
-1.105131232e-10
-1.466688393e-10
-1.956963015e-10
-2.619064164e-10
-3.509915212e-10
-4.705359591e-10
-6.307798462e-10
-8.456807958e-10
-1.134390416e-09
-1.523125102e-09
-2.047288091e-09
-2.753408199e-09
-3.700112224e-09
-4.957096915e-09
-6.601217715e-09
-8.709845805e-09
-1.135405103e-08
-1.459819316e-08
-1.851777692e-08
-2.325266339e-08
-2.911570481e-08
-3.677497711e-08
-4.751926663e-08
-6.360184145e-08
-8.864072969e-08
-1.280412668e-07
-1.8940641e-07
-2.829216497e-07
-4.217603242e-07
-6.227009137e-07
-9.074860564e-07
-1.306222538e-06
-1.865761499e-06
-2.669137486e-06
-3.878321833e-06
-5.822984897e-06
-9.169398113e-06
-1.527477016e-05
-2.668351525e-05
-4.856922861e-05
-9.028452059e-05
-0.0001690839888
-0.0003082785344
-0.0005282926843
-0.0008526965629
-0.001354699865
-0.002127330962
-0.003305510732
-0.00508381217
-0.007717490307
-0.01155888726
-0.01712388957
-0.02484136194
-0.0366536088
-0.05054683546
-0.06789828561
-0.08826688793
-0.1141457914
-0.1364539018
-0.1552044895
-0.1654267486
-0.1747401045
-0.1462007045
-0.08981567852
-0.003431461
0.1110937532
0.2450677733
0.3928602706
0.5266704898
0.6671675387
0.791206592
0.9072971496
1.001641132
1.066724365
1.096813939
1.090252742
1.052260484
0.9990845154
0.9206971483
0.8220848221
0.7171590202
0.6102855382
0.5017682979
0.3983592846
0.3046594881
0.212980594
0.1581064762
0.113958095
0.06988401397
0.03835767339
0.01608647195
0.0005169874895
-0.0101948276
-0.01735995672
-0.0216830793
-0.02425451456
-0.02536797395
-0.02542907152
-0.0247506843
-0.02357343695
-0.02208086846
-0.02041108867
-0.01866612394
-0.01691955012
-0.01522282597
-0.01361015256
-0.01210281918
-0.01071245699
-0.009443630533
-0.008295869608
-0.007265238051
-0.006345529532
-0.005529162322
-0.004807838984
-0.004173022271
-0.003616269151
-0.003129456764
-0.002704927964
-0.002335576425
-0.002014888007
-0.001736950914
-0.001496444206
-0.001288611854
-0.001109227754
-0.0009545556078
-0.0008213065695
-0.0007065966493
-0.0006079052767
-0.0005230359251
-0.0004500793588
-0.0003873797985
-0.000333504121
-0.0002872140751
-0.0002474414089
-0.0002132657487
-0.0001838950324
-0.0001586482846
-0.0001369405182
-0.0001182695459
-0.0001022044985
-8.837585496e-05
-7.646680958e-05
-6.620581e-05
-5.736012167e-05
-4.973028584e-05
-4.31453541e-05
-3.74587958e-05
-3.254498695e-05
-2.829620074e-05
-2.462003003e-05
-2.14371808e-05
-1.867958449e-05
-1.628878335e-05
-1.42145498e-05
-1.241370608e-05
-1.084911509e-05
-9.488817595e-06
-8.305294525e-06
-7.274836049e-06
-6.377001893e-06
-5.594159542e-06
-4.911088957e-06
-4.314644088e-06
-3.79346291e-06
-3.337718898e-06
-2.938907924e-06
-2.589665425e-06
-2.283609458e-06
-2.015205916e-06
-1.779652679e-06
-1.572780016e-06
-1.390964878e-06
-1.23105712e-06
-1.090315941e-06
-9.663550961e-07
-8.570956426e-07
-7.607251547e-07
-6.756625008e-07
-6.005274078e-07
-5.341141402e-07
-4.753687055e-07
-4.233692278e-07
-3.773087268e-07
-3.364804182e-07
-3.002648155e-07
-2.681186039e-07
-2.395649502e-07
-2.141850896e-07
-1.916110077e-07
-1.715190729e-07
-1.536244931e-07
-1.376764861e-07
-1.234540696e-07
-1.107623894e-07
-9.942951405e-08
-8.930363601e-08
-8.025062599e-08
-7.215189444e-08
-6.490252044e-08
-5.840961385e-08
-5.259088044e-08
-4.737336442e-08
-4.269234549e-08
-3.849037114e-08
-3.471640626e-08
-3.13250867e-08
-2.827606258e-08
-2.553342061e-08
-2.306517562e-08
-2.084282257e-08
-1.884094177e-08
-1.70368507e-08
-1.541029656e-08
-1.394318499e-08
-1.261934016e-08
-1.142429262e-08
-1.034509192e-08
-9.370140062e-09
-8.48904457e-09
-7.692487853e-09
-6.972111486e-09
-6.320413395e-09
-5.730656642e-09
-5.196788196e-09
-4.71336653e-09
-4.275497855e-09
-3.878778707e-09
-3.519244782e-09
-3.193325647e-09
-2.897804086e-09
-2.629780012e-09
-2.386637928e-09
-2.166018271e-09
-1.965791354e-09
-1.784034239e-09
-1.619010078e-09
-1.469149455e-09
-1.333033806e-09
-1.209380473e-09
-1.097029212e-09
-9.949303398e-10
-9.021337815e-10
-8.177793861e-10
-7.410882334e-10
-6.713546761e-10
-6.079394124e-10
-5.502629254e-10
-4.977999505e-10
-4.500741105e-10
-4.066533489e-10
-3.671457288e-10
-3.311956216e-10
-2.98480185e-10
-2.687064226e-10
-2.416083607e-10
-2.169443732e-10
-1.944949925e-10
-1.740608874e-10
-1.554609431e-10
-1.385305423e-10
-1.231200765e-10
-1.090935388e-10
-9.632731169e-11
-8.470894286e-11
-7.413617033e-11
-6.451598888e-11
-5.576379106e-11
-4.780264007e-11
-4.056245352e-11
-3.397948382e-11
-2.799569126e-11
-2.255826175e-11
-1.761908614e-11
-1.313438884e-11
-9.064296183e-12
-5.372509379e-12
-2.025928093e-12
1.005591418e-12
3.749526543e-12
6.23091365e-12
8.472522119e-12
1.049518777e-11
1.231785739e-11
1.395782746e-11
1.543085488e-11
1.675131976e-11
1.79323552e-11
1.898592522e-11
1.992296537e-11
2.0753455e-11
2.14864908e-11
2.213039925e-11
2.26927839e-11
2.318060036e-11
2.3600183e-11
2.395733902e-11
2.425736481e-11
2.450512591e-11
2.470506033e-11
2.486122945e-11
2.497735817e-11
2.505686661e-11
2.510285454e-11
2.511819989e-11
2.510553796e-11
2.506727094e-11
2.500560985e-11
2.492258971e-11
2.482008844e-11
2.469982256e-11
2.456335853e-11
2.44121455e-11
2.424752214e-11
2.407070128e-11
2.388283367e-11
2.368495736e-11
2.347804245e-11
2.326297766e-11
2.304057717e-11
2.281160868e-11
2.257675647e-11
2.233668174e-11
2.20919834e-11
2.184322334e-11
2.159090961e-11
2.133550346e-11
2.107746559e-11
2.0817218e-11
2.055511877e-11
2.029153195e-11
2.002678021e-11
1.976117249e-11
1.949498513e-11
1.922847778e-11
1.896189306e-11
1.869546221e-11
1.842939669e-11
1.816389107e-11
1.789912444e-11
1.763527092e-11
1.737250035e-11
1.711093913e-11
1.685072484e-11
1.659198932e-11
1.633483479e-11
1.607938134e-11
1.582572904e-11
1.557396548e-11
1.532417025e-11
1.507642186e-11
1.483079452e-11
1.458735729e-11
1.434616565e-11
1.4107283e-11
1.387075276e-11
1.363662238e-11
1.340493177e-11
1.317572316e-11
1.294902406e-11
1.272486733e-11
1.250327596e-11
1.228427385e-11
1.206788175e-11
1.185411315e-11
1.164299058e-11
1.143451851e-11
1.122870582e-11
1.10255628e-11
1.082508649e-11
1.06272881e-11
1.043216418e-11
1.023971025e-11
1.004992322e-11
9.862800501e-12
9.678331369e-12
9.496515165e-12
9.317339607e-12
9.140787817e-12
8.966851013e-12
8.79551766e-12
8.626772356e-12
8.460598756e-12
8.296988409e-12
8.135915295e-12
7.977364632e-12
7.821316229e-12
7.667753129e-12
7.516652233e-12
7.367991973e-12
7.2217527e-12
7.077908108e-12
6.936436476e-12
6.797321866e-12
6.660541287e-12
6.526060166e-12
6.393864474e-12
6.263925057e-12
6.136217014e-12
6.010717236e-12
5.887395139e-12
5.766226235e-12
5.647190674e-12
5.530256856e-12
5.415400719e-12
5.302600789e-12
5.191823287e-12
5.083046223e-12
4.976242121e-12
4.871388897e-12
4.768455306e-12
4.667418097e-12
4.568247727e-12
4.470918788e-12
4.375404846e-12
4.28168025e-12
4.189723246e-12
4.099509232e-12
4.011006751e-12
3.924192307e-12
3.839037759e-12
3.755518533e-12
3.673611285e-12
3.593288864e-12
3.514526747e-12
3.43730291e-12
3.361591634e-12
3.287371853e-12
3.214617094e-12
3.143303167e-12
3.073408545e-12
3.00490722e-12
2.937776387e-12
2.871993104e-12
2.807534901e-12
2.744379666e-12
2.682505653e-12
2.621890996e-12
2.562518521e-12
2.50436071e-12
2.447392222e-12
2.391597171e-12
2.336954353e-12
2.283444642e-12
2.231049436e-12
2.179748287e-12
2.129517431e-12
2.080337115e-12
2.032191325e-12
1.98506102e-12
1.938928584e-12
1.893776849e-12
1.849583738e-12
1.806333085e-12
1.764004798e-12
1.722584072e-12
1.682054384e-12
1.642398132e-12
1.603599734e-12
1.565640433e-12
1.528506489e-12
1.492181013e-12
1.456647364e-12
1.421892365e-12
1.387900814e-12
1.354655612e-12
1.322142816e-12
1.290347381e-12
1.259255268e-12
1.228854101e-12
1.199128602e-12
1.170066081e-12
1.141652378e-12
1.113873751e-12
1.086719919e-12
1.060176094e-12
1.034232134e-12
1.008874384e-12
9.840919015e-13
9.598715051e-13
9.362034828e-13
9.130762306e-13
8.904756786e-13
8.683932214e-13
8.468178157e-13
8.257378781e-13
8.051434555e-13
7.850263453e-13
7.653740597e-13
7.461763229e-13
7.274258754e-13
7.091108921e-13
6.912249513e-13
6.737582702e-13
6.567029169e-13
6.400470124e-13
6.23782886e-13
6.079020852e-13
5.923967427e-13
5.7725762e-13
5.624769621e-13
5.480475042e-13
5.339626355e-13
5.202140738e-13
5.067947673e-13
4.936969034e-13
4.80912939e-13
4.684361826e-13
4.562599518e-13
4.443803033e-13
4.327886899e-13
4.214782788e-13
4.104411482e-13
3.996712955e-13
3.891640129e-13
3.789150454e-13
3.68917861e-13
3.591666215e-13
3.496536461e-13
3.403743251e-13
3.313251914e-13
3.224997488e-13
3.138916928e-13
3.054970877e-13
2.973120196e-13
2.893309835e-13
2.815496548e-13
2.739639786e-13
2.665687113e-13
2.59360066e-13
2.523333112e-13
2.454822338e-13
2.388056071e-13
2.322977142e-13
2.259546446e-13
2.197724066e-13
2.137483054e-13
2.078793239e-13
2.021594731e-13
1.965868456e-13
1.911577746e-13
1.858689454e-13
1.807165988e-13
1.756981214e-13
1.708117743e-13
1.660524709e-13
1.614175223e-13
1.569044531e-13
1.525100306e-13
1.482317077e-13
1.44066308e-13
1.400110573e-13
1.360639152e-13
1.322223259e-13
1.28483492e-13
1.248458399e-13
1.213075354e-13
1.178653326e-13
1.145166733e-13
1.112591581e-13
1.080902925e-13
1.050082131e-13
1.020117453e-13
9.909960685e-14
9.626787129e-14
9.351683695e-14
9.084388263e-14
8.824720515e-14
8.572551922e-14
8.327633482e-14
8.089858409e-14
7.859128958e-14
7.635315778e-14
7.418249617e-14
7.207804004e-14
7.003964376e-14
6.806587933e-14
6.615651124e-14
6.430960027e-14
6.252255954e-14
6.07931965e-14
5.911642778e-14
5.748428677e-14
5.58867675e-14
5.430308319e-14
5.270920547e-14
5.106066573e-14
4.929970613e-14
4.734435659e-14
4.509633516e-14
2.317672796e-14
2.451718766e-14
1.561372853e-14
9.799161349e-15
6.101519767e-15
3.744615288e-15
2.261198377e-15
1.332487609e-15
7.560366422e-16
4.106043954e-16
2.12894513e-16
9.377525156e-17
3.181668088e-17
-2.298689018e-19
-1.314842362e-17
-1.800822078e-17
-1.866332551e-17
-1.575263052e-17
-1.305511513e-17
-1.008941625e-17
-8.388351703e-18
-6.12230554e-18
-5.213524677e-18
-3.092796909e-18
-2.782021814e-18
-1.987660899e-18
-1.641909356e-18
-1.466692265e-18
-1.31621615e-18
-1.250199538e-18
-1.290071411e-18
-1.314233142e-18
-1.421906224e-18
-1.525748304e-18
-1.629332032e-18
-1.740141836e-18
-1.938847757e-18
-2.091571778e-18
-2.251568314e-18
-2.407268869e-18
-2.567788992e-18
-2.730062681e-18
-2.889562406e-18
-3.054497142e-18
-3.179668179e-18
-3.39570539e-18
-3.585192815e-18
-3.516669277e-18
-3.868273953e-18
-3.896109567e-18
-3.965711243e-18
-4.048400917e-18
-4.099025708e-18
-4.243454606e-18
-4.253438318e-18
-4.196832071e-18
-4.131794285e-18
-4.090052057e-18
-4.048497365e-18
-4.095903159e-18
-4.022413128e-18
-3.936488149e-18
-3.737458353e-18
-3.660043238e-18
-3.479517684e-18
-3.340601162e-18
-3.161419899e-18
-2.997244096e-18
-2.82425448e-18
-2.654553342e-18
-2.477612343e-18
-2.299360152e-18
-2.113827501e-18
-1.949435147e-18
-1.781200968e-18
-1.635541315e-18
-1.474690731e-18
-1.345775925e-18
-1.195061488e-18
-1.103856724e-18
-9.592522699e-19
-8.907699258e-19
-7.680152266e-19
-6.6145202e-19
-5.746048909e-19
-5.134837737e-19
-4.464314745e-19
-3.860927436e-19
-3.345433733e-19
-2.855334044e-19
-2.318632858e-19
-2.088152136e-19
-1.696282952e-19
-1.45797902e-19
-1.163207444e-19
-9.493610166e-20
-7.661992312e-20
-5.941014328e-20
-4.403854126e-20
-3.099578362e-20
-2.066843306e-20
-1.05707894e-20
-2.303343101e-21
4.025684635e-21
9.766951624e-21
1.400783129e-20
1.829586653e-20
2.120947758e-20
2.494765765e-20
2.486518246e-20
2.701971804e-20
2.77152557e-20
2.747173444e-20
2.745230191e-20
2.611560042e-20
2.573285476e-20
2.483383639e-20
2.392285409e-20
2.301394556e-20
2.138030666e-20
2.058798882e-20
1.889557442e-20
1.825395037e-20
1.704297402e-20
1.573454305e-20
1.539006848e-20
1.494065351e-20
1.444606349e-20
1.371440667e-20
1.372339696e-20
1.347298354e-20
1.353654263e-20
1.283007391e-20
1.313740418e-20
1.286029979e-20
1.297765885e-20
1.208508744e-20
1.230876901e-20
1.27901057e-20
1.124363558e-20
1.121829957e-20
1.039875386e-20
1.061275816e-20
9.812482471e-21
9.571250096e-21
8.300081886e-21
7.434022261e-21
8.083925611e-21
6.85403215e-21
5.979646935e-21
5.273831415e-21
3.424455577e-21
1.769958443e-21
1.900951325e-21
1.615378191e-21
1.424197987e-21
-4.535494222e-23
1.868813525e-22
-2.894527914e-23
-1.066548924e-21
-5.967616992e-22
-3.137383723e-21
-2.228581856e-21
-2.637590098e-21
-3.984684562e-21
-5.086435966e-21
-6.461858006e-21
-6.414378483e-21
-6.27756838e-21
-5.737652994e-21
-7.166032176e-21
-7.502445456e-21
-8.254301864e-21
-8.565721654e-21
-9.050047814e-21
-8.421003028e-21
-8.248486753e-21
-8.687555689e-21
-8.615890776e-21
-8.76971923e-21
-9.212037244e-21
-8.973784084e-21
-8.84774163e-21
-9.253593733e-21
-8.981965347e-21
-9.651319363e-21
-9.672098424e-21
-1.024104044e-20
-9.005255612e-21
-9.942318437e-21
-9.227958446e-21
-8.782314619e-21
-9.734181786e-21
-8.625066183e-21
-8.665657308e-21
-8.816652473e-21
-8.756597488e-21
-8.745696159e-21
-8.360314363e-21
-9.516904645e-21
-9.545586359e-21
-8.978763525e-21
-8.425384841e-21
-8.668913351e-21
-8.470558131e-21
-8.488684887e-21
-8.520817992e-21
-8.008194325e-21
-8.115743245e-21
-8.357935703e-21
-7.887663365e-21
-7.519209497e-21
-8.173322322e-21
-8.306111986e-21
-8.028935087e-21
-7.140948928e-21
-8.109279585e-21
-7.544318585e-21
-7.782513186e-21
-7.460046054e-21
-7.278648054e-21
-7.212960799e-21
-7.317466985e-21
-6.917510198e-21
-6.869288757e-21
-6.541475439e-21
-6.192983765e-21
-6.010331122e-21
-5.307478543e-21
-5.317696266e-21
-4.840602976e-21
-4.409176545e-21
-3.793465463e-21
-3.546246336e-21
-3.48198595e-21
-1.873080446e-21
-1.821672766e-21
-1.864143801e-21
-1.176111408e-21
-5.445242039e-22
-1.996306968e-22
3.312220376e-22
8.395847603e-22
1.661075278e-21
2.517594268e-21
2.160958421e-21
3.051320516e-21
5.039800503e-21
5.689609251e-21
5.315737627e-21
)
;

boundaryField
{
    inlet
    {
        type            calculated;
        value           uniform 0;
    }
    outlet
    {
        type            calculated;
        value           uniform 5.599080628e-21;
    }
    wall
    {
        type            empty;
    }
}


// ************************************************************************* //
