/*--------------------------------*- C++ -*----------------------------------*\
  =========                 |
  \\      /  F ield         | OpenFOAM: The Open Source CFD Toolbox
   \\    /   O peration     | Website:  https://openfoam.org
    \\  /    A nd           | Version:  7
     \\/     M anipulation  |
\*---------------------------------------------------------------------------*/
FoamFile
{
    version     2.0;
    format      ascii;
    class       volScalarField;
    location    "0.000558243009";
    object      ddt0(rho,OH);
}
// * * * * * * * * * * * * * * * * * * * * * * * * * * * * * * * * * * * * * //

dimensions      [1 -3 -1 0 0 0 0];

internalField   nonuniform List<scalar> 
1500
(
-8.755629816e-25
-2.103720505e-25
-6.554300119e-25
-1.019855829e-24
-1.001820565e-24
-7.235734583e-25
-4.20452275e-25
-2.137715747e-25
-1.111090399e-25
-7.752028824e-26
-7.929638758e-26
-9.587937578e-26
-1.170675443e-25
-1.383819218e-25
-1.578751459e-25
-1.74551668e-25
-1.878522507e-25
-1.973985609e-25
-2.03006148e-25
-2.046012072e-25
-2.022554119e-25
-1.961485065e-25
-1.865399837e-25
-1.737819334e-25
-1.582618513e-25
-1.404336251e-25
-1.20758289e-25
-9.971516626e-26
-7.779296818e-26
-5.545636886e-26
-3.315333245e-26
-1.131004546e-26
9.69309609e-27
2.950406892e-26
4.780381917e-26
6.432271193e-26
7.882430423e-26
9.110953732e-26
1.010081697e-25
1.083909729e-25
1.131554432e-25
1.152439433e-25
1.146218026e-25
1.113109155e-25
1.0535816e-25
9.686201707e-26
8.595268535e-26
7.280904573e-26
5.764969212e-26
4.07321132e-26
2.234002785e-26
2.777375921e-27
-1.760532275e-26
-3.847985619e-26
-5.948300854e-26
-8.026826981e-26
-1.005059802e-25
-1.198682003e-25
-1.380562962e-25
-1.548026486e-25
-1.698645691e-25
-1.830593589e-25
-1.942035867e-25
-2.031980427e-25
-2.099470299e-25
-2.144270233e-25
-2.166280839e-25
-2.165805785e-25
-2.143774904e-25
-2.101090992e-25
-2.039069662e-25
-1.959246413e-25
-1.863314692e-25
-1.753065588e-25
-1.63056128e-25
-1.497633771e-25
-1.356280779e-25
-1.208369218e-25
-1.055769535e-25
-9.002106341e-26
-7.432351784e-26
-5.863545614e-26
-4.308626371e-26
-2.779019732e-26
-1.286503167e-26
1.603191409e-27
1.55318049e-26
2.88362841e-26
4.145256693e-26
5.33191715e-26
6.437063388e-26
7.454499501e-26
8.379245054e-26
9.205822397e-26
9.92851138e-26
1.054250251e-25
1.104328457e-25
1.142572663e-25
1.168718691e-25
1.182385116e-25
1.183362505e-25
1.171501831e-25
1.146843974e-25
1.109329874e-25
1.059287269e-25
9.969550202e-26
9.227801015e-26
8.372884096e-26
7.412079687e-26
6.351959802e-26
5.20238911e-26
3.971027498e-26
2.669387116e-26
1.307665687e-26
-1.029108242e-27
-1.551692268e-26
-3.026491789e-26
-4.516433766e-26
-6.009283288e-26
-7.494147767e-26
-8.95941114e-26
-1.039423041e-25
-1.178849646e-25
-1.313223645e-25
-1.441545632e-25
-1.562989388e-25
-1.676713754e-25
-1.781920136e-25
-1.878062011e-25
-1.964447602e-25
-2.04070373e-25
-2.106350677e-25
-2.161130762e-25
-2.204880644e-25
-2.237510648e-25
-2.259029356e-25
-2.269635845e-25
-2.269492997e-25
-2.258824642e-25
-2.238200371e-25
-2.208018003e-25
-2.168796439e-25
-2.121244004e-25
-2.065974746e-25
-2.003702066e-25
-1.935204656e-25
-1.861245583e-25
-1.782720373e-25
-1.700342175e-25
-1.614945655e-25
-1.527327493e-25
-1.438289159e-25
-1.348583278e-25
-1.258806111e-25
-1.169689718e-25
-1.081765169e-25
-9.955215618e-26
-9.113419238e-26
-8.296326794e-26
-7.505239226e-26
-6.742036888e-26
-6.007094768e-26
-5.29964653e-26
-4.618273396e-26
-3.961583783e-26
-3.326937288e-26
-2.709981375e-26
-2.108622234e-26
-1.518741653e-26
-9.363522739e-27
-3.594407396e-27
2.174494067e-27
7.952248626e-27
1.377051167e-26
1.964132338e-26
2.557648202e-26
3.156837783e-26
3.761922411e-26
4.371394787e-26
4.982545891e-26
5.593480598e-26
6.200315413e-26
6.799473431e-26
7.388253167e-26
7.96150448e-26
8.51639126e-26
9.048455593e-26
9.554576304e-26
1.003149111e-25
1.047664401e-25
1.088763059e-25
1.126264565e-25
1.159946813e-25
1.189691737e-25
1.215483255e-25
1.237051456e-25
1.254406808e-25
1.267411142e-25
1.276061426e-25
1.280154256e-25
1.279730978e-25
1.274652745e-25
1.264910917e-25
1.250376756e-25
1.231127557e-25
1.207059309e-25
1.178181344e-25
1.144526126e-25
1.106213611e-25
1.063246229e-25
1.015733976e-25
9.638386712e-26
9.078234475e-26
8.479170825e-26
7.845518735e-26
7.183061858e-26
6.496880746e-26
5.796123742e-26
5.088708168e-26
4.384380149e-26
3.691811126e-26
3.019390659e-26
2.372869294e-26
1.754952335e-26
1.165374071e-26
5.966363317e-27
3.822398393e-28
-5.270579026e-27
-1.121611588e-26
-1.76734404e-26
-2.491083235e-26
-3.313120332e-26
-4.248445627e-26
-5.301949229e-26
-6.464227025e-26
-7.708473487e-26
-8.989487347e-26
-1.024435861e-25
-1.139201301e-25
-1.234089981e-25
-1.299511594e-25
-1.326472957e-25
-1.307788884e-25
-1.239974812e-25
-1.124981124e-25
-9.729006959e-26
-8.043063988e-26
-6.514465575e-26
-5.509376349e-26
-5.229286869e-26
-7.509541384e-26
-6.590563862e-26
-6.167829987e-26
-6.098647203e-26
-6.191317631e-26
-6.350773699e-26
-6.540947048e-26
-6.750128065e-26
-6.975930274e-26
-7.218526891e-26
-7.478652731e-26
-7.75714972e-26
-8.05456723e-26
-8.371759633e-26
-8.709485226e-26
-9.068388154e-26
-9.449476747e-26
-9.853395494e-26
-1.028116458e-25
-1.073403874e-25
-1.121262995e-25
-1.171827512e-25
-1.225227887e-25
-1.281576132e-25
-1.34100179e-25
-1.403619328e-25
-1.469566297e-25
-1.539036964e-25
-1.612138806e-25
-1.689055289e-25
-1.769938831e-25
-1.854960819e-25
-1.944321313e-25
-2.038212943e-25
-2.13682766e-25
-2.240378279e-25
-2.349091822e-25
-2.463209248e-25
-2.582970086e-25
-2.708646864e-25
-2.84050965e-25
-2.978813619e-25
-3.123857437e-25
-3.275981474e-25
-3.435500669e-25
-3.602741697e-25
-3.778087016e-25
-3.961916633e-25
-4.154612444e-25
-4.356597468e-25
-4.568323396e-25
-4.790244564e-25
-5.022826963e-25
-5.266608991e-25
-5.522103232e-25
-5.789873915e-25
-6.070498661e-25
-6.364602528e-25
-6.672830922e-25
-6.995873818e-25
-7.334443842e-25
-7.689280924e-25
-8.061166566e-25
-8.450941069e-25
-8.859506956e-25
-9.287724268e-25
-9.736576749e-25
-1.020708732e-24
-1.070032543e-24
-1.121738123e-24
-1.175942664e-24
-1.232767957e-24
-1.292348225e-24
-1.354815067e-24
-1.420313071e-24
-1.488994674e-24
-1.56101761e-24
-1.636544648e-24
-1.715755582e-24
-1.798828487e-24
-1.885960375e-24
-1.977356059e-24
-2.07322548e-24
-2.173795077e-24
-2.279300925e-24
-2.389996614e-24
-2.506137369e-24
-2.62800322e-24
-2.755882561e-24
-2.890078712e-24
-3.030912313e-24
-3.178723381e-24
-3.333866365e-24
-3.496710634e-24
-3.667653185e-24
-3.847104569e-24
-4.035503402e-24
-4.233303342e-24
-4.440988047e-24
-4.659064129e-24
-4.888058443e-24
-5.128536429e-24
-5.381082959e-24
-5.646321447e-24
-5.924900306e-24
-6.217502862e-24
-6.524847347e-24
-6.847693074e-24
-7.186833498e-24
-7.543100327e-24
-7.917373554e-24
-8.310573944e-24
-8.723667381e-24
-9.157666513e-24
-9.613637718e-24
-1.009270271e-23
-1.059602797e-23
-1.11248495e-23
-1.168045131e-23
-1.22641895e-23
-1.287747558e-23
-1.352179274e-23
-1.419869895e-23
-1.490981924e-23
-1.56568564e-23
-1.64415827e-23
-1.726586693e-23
-1.813164923e-23
-1.904096579e-23
-1.999593652e-23
-2.09987774e-23
-2.205179997e-23
-2.315741896e-23
-2.431814372e-23
-2.5536595e-23
-2.681550197e-23
-2.815770928e-23
-2.956616903e-23
-3.104395556e-23
-3.259426761e-23
-3.422042112e-23
-3.592586863e-23
-3.771418495e-23
-3.958908846e-23
-4.155441921e-23
-4.361417404e-23
-4.577248385e-23
-4.803362011e-23
-5.040201098e-23
-5.288223269e-23
-5.547901015e-23
-5.819722484e-23
-6.104191829e-23
-6.40182929e-23
-6.713170799e-23
-7.038768838e-23
-7.379192794e-23
-7.735028477e-23
-8.106879084e-23
-8.49536397e-23
-8.901120828e-23
-9.324803906e-23
-9.767084945e-23
-1.022865374e-22
-1.071021797e-22
-1.121250218e-22
-1.173625011e-22
-1.228222257e-22
-1.285119882e-22
-1.344397715e-22
-1.406137244e-22
-1.470421985e-22
-1.537337211e-22
-1.606970139e-22
-1.679409779e-22
-1.754747162e-22
-1.833075149e-22
-1.914488601e-22
-1.999084352e-22
-2.086961274e-22
-2.178220238e-22
-2.272964175e-22
-2.371298207e-22
-2.473329652e-22
-2.579167986e-22
-2.688925068e-22
-2.802715196e-22
-2.920654944e-22
-3.04286361e-22
-3.169463195e-22
-3.300578308e-22
-3.436336679e-22
-3.576869031e-22
-3.722309452e-22
-3.872795198e-22
-4.028467189e-22
-4.189470491e-22
-4.355953937e-22
-4.528070886e-22
-4.705979195e-22
-4.889841692e-22
-5.079826509e-22
-5.276107458e-22
-5.478864289e-22
-5.688283327e-22
-5.904557835e-22
-6.127888448e-22
-6.358483924e-22
-6.596561568e-22
-6.84234786e-22
-7.096079172e-22
-7.35800245e-22
-7.628376389e-22
-7.907471377e-22
-8.195571507e-22
-8.492974678e-22
-8.799994072e-22
-9.116959138e-22
-9.44421661e-22
-9.782131949e-22
-1.013109099e-21
-1.049150062e-21
-1.0863791e-21
-1.1248417e-21
-1.164585987e-21
-1.20566291e-21
-1.248126413e-21
-1.29203375e-21
-1.337445583e-21
-1.384426282e-21
-1.433044231e-21
-1.48337197e-21
-1.535486622e-21
-1.589470135e-21
-1.645409621e-21
-1.703397706e-21
-1.763532941e-21
-1.825920107e-21
-1.890670782e-21
-1.957903685e-21
-2.027745205e-21
-2.10032993e-21
-2.175801156e-21
-2.254311545e-21
-2.336023674e-21
-2.42111078e-21
-2.509757427e-21
-2.602160329e-21
-2.69852911e-21
-2.799087252e-21
-2.904072966e-21
-3.013740268e-21
-3.128360051e-21
-3.24822116e-21
-3.373631758e-21
-3.50492043e-21
-3.642437173e-21
-3.786553563e-21
-3.937659713e-21
-4.096152071e-21
-4.262397613e-21
-4.436655846e-21
-4.619053795e-21
-4.809656562e-21
-5.008907012e-21
-5.216653589e-21
-5.432753795e-21
-5.660304591e-21
-5.901163025e-21
-6.156676249e-21
-6.428118826e-21
-6.716805616e-21
-7.024137063e-21
-7.351618728e-21
-7.700847063e-21
-8.073434977e-21
-8.470668294e-21
-8.892055897e-21
-9.333710193e-21
-9.800757949e-21
-1.0295922e-20
-1.08204859e-20
-1.137502976e-20
-1.19612608e-20
-1.258237847e-20
-1.324175857e-20
-1.394256278e-20
-1.468794225e-20
-1.548118984e-20
-1.632582556e-20
-1.722564696e-20
-1.818476641e-20
-1.920764578e-20
-2.029913347e-20
-2.146450476e-20
-2.270950737e-20
-2.404041266e-20
-2.54640736e-20
-2.698798994e-20
-2.86203831e-20
-3.037028022e-20
-3.224761126e-20
-3.426331835e-20
-3.642948182e-20
-3.875946439e-20
-4.126807678e-20
-4.397176731e-20
-4.688884125e-20
-5.003971331e-20
-5.344719943e-20
-5.713685454e-20
-6.113736408e-20
-6.548099822e-20
-7.020414099e-20
-7.534790626e-20
-8.095885649e-20
-8.708984399e-20
-9.380099544e-20
-1.01160868e-19
-1.092478102e-19
-1.18151564e-19
-1.279751613e-19
-1.388371672e-19
-1.508743471e-19
-1.642448429e-19
-1.791319687e-19
-1.957487611e-19
-2.143434536e-19
-2.352060854e-19
-2.586765169e-19
-2.851541797e-19
-3.15110002e-19
-3.491010485e-19
-3.877885797e-19
-4.319604375e-19
-4.825589204e-19
-5.407156637e-19
-6.077954986e-19
-6.854518567e-19
-7.756970934e-19
-8.809921348e-19
-1.004361279e-18
-1.1495398e-18
-1.321164488e-18
-1.525020525e-18
-1.768362453e-18
-2.060332835e-18
-2.412509944e-18
-2.839626205e-18
-3.360512983e-18
-3.999345814e-18
-4.787289014e-18
-5.764671784e-18
-6.983872336e-18
-8.513146221e-18
-1.044171482e-17
-1.288653699e-17
-1.600133065e-17
-1.99886036e-17
-2.51157121e-17
-3.173631301e-17
-4.031904335e-17
-5.148588888e-17
-6.606355018e-17
-8.515225267e-17
-1.10217983e-16
-1.432162027e-16
-1.867578863e-16
-2.44332505e-16
-3.206076842e-16
-4.218321849e-16
-5.563782366e-16
-7.354720029e-16
-9.741783044e-16
-1.292729374e-15
-1.718319751e-15
-2.287533645e-15
-3.049631931e-15
-4.071009522e-15
-5.441249538e-15
-7.281360704e-15
-9.755007177e-15
-1.308385085e-14
-1.7568562e-14
-2.361766784e-14
-3.178727686e-14
-4.28359517e-14
-5.780076935e-14
-7.810314863e-14
-1.05696706e-13
-1.432747812e-13
-1.945632169e-13
-2.647358957e-13
-3.610087287e-13
-4.934956046e-13
-6.764483806e-13
-9.30046261e-13
-1.282974938e-12
-1.776215986e-12
-2.468714488e-12
-3.445869184e-12
-4.832289805e-12
-6.811143559e-12
-9.653797025e-12
-1.376568439e-11
-1.975799771e-11
-2.856093409e-11
-4.160455282e-11
-6.111103588e-11
-9.057277731e-11
-1.355442518e-10
-2.049706334e-10
-3.134456934e-10
-4.850985376e-10
-7.603669451e-10
-1.207940132e-09
-1.946066366e-09
-3.180929818e-09
-5.276456675e-09
-8.882297074e-09
-1.517028655e-08
-2.627459431e-08
-4.611756226e-08
-8.197365185e-08
-1.474641449e-07
-2.683660995e-07
-4.940414742e-07
-9.202454444e-07
-1.735211539e-06
-3.313594357e-06
-6.408705721e-06
-1.254514514e-05
-2.481455412e-05
-4.946733966e-05
-9.904013446e-05
-0.0001983678324
-0.0003958539845
-0.0007840207063
-0.001535877583
-0.00296727241
-0.005640179149
-0.01052750389
-0.01926550571
-0.03452323998
-0.06051526562
-0.1036676015
-0.1734094306
-0.2829354165
-0.4500975317
-0.6964424486
-1.050381776
-1.541496337
-2.20292467
-3.013811634
-4.041152372
-5.344842907
-7.032334787
-9.348393548
-12.66529027
-17.37785962
-23.84254532
-32.52958865
-44.02653834
-58.64034041
-77.96293648
-99.68282446
-124.708555
-152.4188987
-184.2455989
-214.4881014
-243.854999
-270.3380022
-297.549056
-308.8675353
-310.7971576
-303.6453743
-288.9304071
-268.8588534
-247.1629803
-236.9495231
-224.0739011
-221.5070858
-216.6529255
-213.6681878
-210.7613647
-205.7951509
-197.6070107
-188.9213507
-186.7015275
-181.5705375
-174.2969343
-166.5642059
-157.1525976
-144.7803225
-130.5020111
-115.4649582
-98.01820244
-90.10132052
-82.91679817
-74.22222799
-67.58213687
-62.29885968
-57.94389632
-54.24282326
-51.02067293
-48.16514622
-45.6061043
-43.280448
-41.13812701
-39.14577068
-37.27681806
-35.51133478
-33.83491337
-32.2376095
-30.71294311
-29.25724588
-27.86814485
-26.5445217
-25.2859412
-24.09223501
-22.96325886
-21.89852184
-20.89736215
-19.95870435
-19.08105439
-18.26258736
-17.50113689
-16.79424578
-16.13922322
-15.53320033
-14.9731816
-14.45609511
-13.9788378
-13.53831544
-13.13147805
-12.75534911
-12.4070493
-12.08381661
-11.78302067
-11.5021738
-11.23893813
-10.99112984
-10.75672092
-10.53383842
-10.32076193
-10.11591979
-9.917884162
-9.725364577
-9.537202008
-9.352361088
-9.169923275
-8.989079208
-8.809120957
-8.629434952
-8.449494562
-8.268852971
-8.087136578
-7.904038151
-7.719311205
-7.532763499
-7.344252361
-7.153678846
-6.960983432
-6.7661411
-6.569157951
-6.3700666
-6.168923473
-5.965804905
-5.760804713
-5.554031488
-5.345605895
-5.135658852
-4.924329423
-4.711762919
-4.498109582
-4.283523073
-4.068158944
-3.852174087
-3.635725241
-3.418968406
-3.202058185
-2.985146657
-2.768383513
-2.551915021
-2.335883894
-2.120428881
-1.905684543
-1.691781067
-1.478843926
-1.266993968
-1.056347091
-0.8469833186
-0.6390704
-0.4326731876
-0.2279018943
-0.02484184054
0.1764193529
0.3757997157
0.5732211635
0.7686105759
0.9618985841
1.153020354
1.341915124
1.528526158
1.712800389
1.894688754
2.074145547
2.251128595
2.425598987
2.59752127
2.766862704
2.933593689
3.097687488
3.259119854
3.417869266
3.573916655
3.727245228
3.877840397
4.025689817
4.170782918
4.313111407
4.452668439
4.589449092
4.723450052
4.854669443
4.983106946
5.108763568
5.231641823
5.351745012
5.469077924
5.583646433
5.695457331
5.804518361
5.910838272
6.014426576
6.115293515
6.213450202
6.30890851
6.401680694
6.491779803
6.579219482
6.664013689
6.74617718
6.825724866
6.902672229
6.977035075
7.048829697
7.118072573
7.18478043
7.248970551
7.310660116
7.369866756
7.426608313
7.480902795
7.532768222
7.582223025
7.629285659
7.673974558
7.716308488
7.756306282
7.79398657
7.829368518
7.862470915
7.893312891
7.921913432
7.948291644
7.972466707
7.99445767
8.014283635
8.031963713
8.047517196
8.060962935
8.072320177
8.081607918
8.088845167
8.094051012
8.097244257
8.098443939
8.097668841
8.094937884
8.090269757
8.083683212
8.07519697
8.064829499
8.052599445
8.038525342
8.022625494
8.004918368
7.985422147
7.964155168
7.941135536
7.916381372
7.889910747
7.861741563
7.831891659
7.800378977
7.767221233
7.73243602
7.696041061
7.658053829
7.618491857
7.577372488
7.534713047
7.490530872
7.444843081
7.397666833
7.349019063
7.298916955
7.247377304
7.194416945
7.140052773
7.084301381
7.027179439
6.968703574
6.90889028
6.847756021
6.785317094
6.721589983
6.656590843
6.590335857
6.522841202
6.454122975
6.384197209
6.313079696
6.24078653
6.167333468
6.092736265
6.017010672
5.940172379
5.862236992
5.783220004
5.703136968
5.622003251
5.539834423
5.456645641
5.372452271
5.287269631
5.20111275
5.113996862
5.025937063
4.936948404
4.847045794
4.756244263
4.664558675
4.572003907
4.478594758
4.38434599
4.289272358
4.193388486
4.096709061
3.999248643
3.901021817
3.802043039
3.702326875
3.601887659
3.500739911
3.398897895
3.296375942
3.193188332
3.089349377
2.984873147
2.87977402
2.774065954
2.667763135
2.560879676
2.453429528
2.345426735
2.236885302
2.127819167
2.018242182
1.908168295
1.797611331
1.686585086
1.57510339
1.463179936
1.350828614
1.238062958
1.124896695
1.011343508
0.8974170122
0.783130762
0.6684983529
0.5535332624
0.4382490909
0.3226592972
0.2067773066
0.09061648231
-0.02580948249
-0.1424875609
-0.2594041461
-0.3765460494
-0.4938999088
-0.6114524447
-0.729190382
-0.8471005671
-0.9651697074
-1.083384698
-1.201732318
-1.320199512
-1.438773144
-1.55744009
-1.676187364
-1.795001943
-1.913870799
-2.032780964
-2.151719584
-2.270673543
-2.389630204
-2.50857657
-2.627499824
-2.746407342
-2.865245708
-2.984022784
-3.10272587
-3.221346539
-3.339863118
-3.458267478
-3.576546689
-3.694688486
-3.81268036
-3.930509837
-4.0481644
-4.16563177
-4.282899481
-4.399955254
-4.516786737
-4.633381677
-4.749727778
-4.865812942
-4.981624965
-5.097151813
-5.212381305
-5.327301484
-5.441900382
-5.556166093
-5.67008668
-5.783650372
-5.896845323
-6.009659919
-6.122082398
-6.234101144
-6.345704631
-6.456881365
-6.56761985
-6.677908781
-6.787736759
-6.897092629
-7.005965065
-7.114343088
-7.222215519
-7.329571483
-7.436399991
-7.542690219
-7.648431459
-7.75361298
-7.858224149
-7.96225458
-8.065693665
-8.168531165
-8.270756774
-8.372360331
-8.47333177
-8.573661089
-8.673338378
-8.772353874
-8.870697897
-8.968360794
-9.065333182
-9.161605516
-9.257168668
-9.352013506
-9.446130955
-9.539511989
-9.632147915
-9.72403002
-9.81514977
-9.905498672
-9.995068526
-10.08385106
-10.17183822
-10.25902228
-10.34539525
-10.43094969
-10.51567801
-10.59957301
-10.68262743
-10.76483418
-10.84618651
-10.92667772
-11.00630115
-11.08505047
-11.16291948
-11.23990215
-11.31599251
-11.39118493
-11.46547385
-11.53885391
-11.61131997
-11.68286706
-11.7534903
-11.82318518
-11.89194724
-11.95977225
-12.02665626
-12.0925953
-12.15758592
-12.2216246
-12.28470815
-12.34683363
-12.40799817
-12.4681993
-12.52743456
-12.58570193
-12.64299937
-12.6993253
-12.75467824
-12.80905696
-12.86246039
-12.91488782
-12.96633874
-13.01681275
-13.06630989
-13.11483034
-13.16237445
-13.20894282
-13.25453656
-13.29915664
-13.34280454
-13.38548183
-13.42719058
-13.46793271
-13.50771072
-13.54652734
-13.58438534
-13.62128801
-13.65723858
-13.69224095
-13.72629886
-13.75941655
-13.7915985
-13.82284937
-13.85317412
-13.88257793
-13.91106628
-13.93864496
-13.96531986
-13.99109728
-14.01598364
-14.03998575
-14.06311058
-14.08536538
-14.10675768
-14.12729519
-14.14698598
-14.16583816
-14.18386046
-14.2010614
-14.21745015
-14.2330357
-14.24782771
-14.26183574
-14.27506967
-14.28753967
-14.29925603
-14.31022911
-14.3204697
-14.32998838
-14.33879621
-14.34690388
-14.35432249
-14.36106271
-14.36713536
-14.37253111
-14.37729903
-14.3814293
-14.38493086
-14.38781157
-14.39007846
-14.39173289
-14.39278767
-14.39324084
-14.39309275
-14.39234109
-14.39098171
-14.38900758
-14.38640918
-14.38317744
-14.37929681
-14.37476411
-14.36955029
-14.36371052
-14.35706083
-14.35031788
-14.34141728
-14.33517392
-14.32472702
-14.31527601
-14.3089978
-14.30424714
-14.27497466
-13.65104697
-10.95610791
-8.633849242
-6.437426574
-4.372593047
-2.450088764
-0.6764865922
0.9430489723
2.404970234
3.707442983
4.850197662
5.834501871
6.663092327
7.340097249
7.870943918
8.26225325
8.521722387
8.657997014
8.680535234
8.599464739
8.425434941
8.169466432
7.842799225
7.456742472
7.022527173
6.551164359
6.053310705
5.539143406
5.018246334
4.49950901
3.991040022
3.500095688
3.033025449
2.595233889
2.191160159
1.824274248
1.49708986
1.211192923
0.9672847488
0.7652380918
0.604164726
0.4824924613
0.3980496367
0.3481549205
0.3297102887
0.3392950745
0.3732590092
0.4278124409
0.4991119613
0.5833400243
0.6767773089
0.7758668984
0.8772695945
0.9779100065
1.075013198
1.166132135
1.24916608
1.322370566
1.384359498
1.434100116
1.470901675
1.494398635
1.504529228
1.501510274
1.485809046
1.458112948
1.419297787
1.370395281
1.312560419
1.247039292
1.175137868
1.09819216
1.017540231
0.934496352
0.8503276067
0.7662331797
0.6833265454
0.6026206012
0.5250158874
0.4512918642
0.3821012083
0.3179670196
0.259282825
0.2063151484
0.1592084501
0.1179921556
0.08258950557
0.05282790587
0.02845047516
0.009128460835
-0.005525797519
-0.01594565935
-0.02259704318
-0.02596562045
-0.02654461038
-0.02482340333
-0.02127720944
-0.01635789463
-0.01048614495
-0.004045031764
0.00262494854
0.009229360089
0.01552184983
0.02130476732
0.02642846995
0.03078942607
0.03432726696
0.03702093714
0.03888413816
0.0399602317
0.040316811
0.04004011541
0.03922948012
0.03799198186
0.03643743123
0.0346738503
0.03280352625
0.03091972769
0.02910413102
0.02742497579
0.02593594171
0.0246757138
0.02366818871
0.0229232357
0.02243793109
0.02219816495
0.02218051544
0.02235429133
0.02268362567
0.02312954671
0.0236519326
0.02421127877
0.02477023237
0.02529484724
0.02575554728
0.02612778336
0.02639239564
0.02653570391
0.02654935363
0.02642995512
0.02617855748
0.02580001192
0.02530225184
0.0246955479
0.02399177377
0.0232037033
0.02234438849
0.02142661186
0.02046245314
0.01946295092
0.01843788118
0.01739562949
0.01634316135
0.0152860691
0.01422868184
0.01317422412
0.01212500847
0.01108264079
0.01004822843
0.009022581814
0.008006393451
0.007000391896
0.006005467765
0.005022761384
0.004053723248
0.003100140085
0.002164130978
0.001248123801
0.0003548070481
-0.0005129305964
-0.001352073337
-0.002159553817
-0.002932335248
-0.003667487587
-0.004362263713
-0.005014165529
-0.005621004851
-0.006180955103
-0.006692593727
-0.007154933495
-0.00756744923
-0.007930090989
-0.008243292354
-0.008507970383
-0.008725519148
-0.00889779649
-0.009027106265
-0.009116175262
-0.009168125771
-0.009186442692
-0.009174940484
-0.009137722849
-0.009079138925
-0.009003741155
-0.008916232667
-0.008821416812
-0.008724140546
-0.008629236357
-0.008541459085
-0.008465421971
-0.008405530874
-0.008365913543
-0.00835035163
-0.00836221241
-0.008404380361
-0.008479194464
-0.008588387453
-0.008733034114
-0.00891350614
-0.00912943755
-0.009379702075
-0.009662401121
-0.009974869558
-0.01031369146
-0.01067473527
-0.01105320109
-0.0114436827
-0.01184024399
-0.01223650642
-0.01262574735
-0.01300100559
-0.01335519418
-0.01368121539
-0.01397207667
-0.01422100541
-0.01442155801
-0.01456772393
-0.01465401913
-0.01467556837
-0.01462817661
-0.01450838433
-0.01431350976
-0.01404167526
-0.0136918214
-0.01326370568
-0.01275789098
-0.01217572438
-0.01151930496
-0.01079144539
-0.009995621204
-0.009135908379
-0.008216902578
-0.00724361713
-0.006221351543
-0.005155521578
-0.004051411807
-0.002913776189
-0.001745660045
-0.00054677267
0.0007000998502
)
;

boundaryField
{
    inlet
    {
        type            calculated;
        value           uniform 0;
    }
    outlet
    {
        type            calculated;
        value           uniform 0.001393865862;
    }
    wall
    {
        type            empty;
    }
}


// ************************************************************************* //
