/*--------------------------------*- C++ -*----------------------------------*\
  =========                 |
  \\      /  F ield         | OpenFOAM: The Open Source CFD Toolbox
   \\    /   O peration     | Website:  https://openfoam.org
    \\  /    A nd           | Version:  7
     \\/     M anipulation  |
\*---------------------------------------------------------------------------*/
FoamFile
{
    version     2.0;
    format      ascii;
    class       volScalarField;
    location    "0.000558243009";
    object      ddt0(rho,C7H15);
}
// * * * * * * * * * * * * * * * * * * * * * * * * * * * * * * * * * * * * * //

dimensions      [1 -3 -1 0 0 0 0];

internalField   nonuniform List<scalar> 
1500
(
-9.465071315e-21
-2.401687735e-20
-2.801465172e-20
-2.140066707e-20
-1.251588827e-20
-5.88810166e-21
-2.125645122e-21
-4.637602193e-22
-2.334168535e-23
-1.767123791e-22
-5.712523367e-22
-1.037717746e-21
-1.502989205e-21
-1.934162497e-21
-2.313848598e-21
-2.630529225e-21
-2.875920348e-21
-3.044468564e-21
-3.133278921e-21
-3.142033102e-21
-3.072787054e-21
-2.929675481e-21
-2.718570827e-21
-2.446730694e-21
-2.122453991e-21
-1.7547559e-21
-1.353066284e-21
-9.269548938e-22
-4.858882552e-22
-3.902423005e-23
4.049500011e-22
8.379330776e-22
1.252478133e-21
1.641820141e-21
1.999871721e-21
2.321200678e-21
2.601003358e-21
2.835086858e-21
3.019869747e-21
3.152406504e-21
3.230436086e-21
3.252450326e-21
3.217773512e-21
3.126641886e-21
2.980271077e-21
2.78090009e-21
2.531802684e-21
2.23726018e-21
1.902493497e-21
1.533555803e-21
1.137190793e-21
7.206640944e-22
2.915770628e-22
-1.423270338e-22
-5.733548851e-22
-9.940445782e-22
-1.397329895e-21
-1.77668272e-21
-2.12623095e-21
-2.440851134e-21
-2.716236587e-21
-2.948942495e-21
-3.136410124e-21
-3.276972191e-21
-3.369841127e-21
-3.415081451e-21
-3.413567082e-21
-3.366924079e-21
-3.277459147e-21
-3.148074565e-21
-2.982170813e-21
-2.78353899e-21
-2.55624608e-21
-2.304517055e-21
-2.032618518e-21
-1.744748921e-21
-1.444940555e-21
-1.136977903e-21
-8.243358736e-22
-5.10140402e-22
-1.971520046e-22
1.122284073e-22
4.159339907e-22
7.121903706e-22
9.994625484e-22
1.276395515e-21
1.541753723e-21
1.794364193e-21
2.033067301e-21
2.256678529e-21
2.463963214e-21
2.653625364e-21
2.824310536e-21
2.974621862e-21
3.103147553e-21
3.208497783e-21
3.289348308e-21
3.344488059e-21
3.372867897e-21
3.373647752e-21
3.346239486e-21
3.29034326e-21
3.20597534e-21
3.093485984e-21
2.953566485e-21
2.787245065e-21
2.595872064e-21
2.38109551e-21
2.144828518e-21
1.889210804e-21
1.616566527e-21
1.329360992e-21
1.030158522e-21
7.215834892e-22
4.062860621e-22
8.691342899e-23
-2.339131704e-22
-5.53616202e-22
-8.696753478e-22
-1.17963819e-21
-1.481129708e-21
-1.771862067e-21
-2.049646199e-21
-2.312405892e-21
-2.558194872e-21
-2.785216615e-21
-2.991846122e-21
-3.176652415e-21
-3.338420285e-21
-3.476169576e-21
-3.589170556e-21
-3.67695405e-21
-3.739315552e-21
-3.776312958e-21
-3.788258189e-21
-3.775703479e-21
-3.739423453e-21
-3.680394489e-21
-3.599772976e-21
-3.498873855e-21
-3.379150792e-21
-3.242178799e-21
-3.089639674e-21
-2.923309978e-21
-2.745051052e-21
-2.556799653e-21
-2.360557808e-21
-2.158380251e-21
-1.952357692e-21
-1.744594523e-21
-1.537179995e-21
-1.332152439e-21
-1.131456831e-21
-9.368968849e-22
-7.500834353e-22
-5.723817849e-22
-4.048611079e-22
-2.482494246e-22
-1.028977312e-22
3.12433344e-23
1.546313092e-22
2.681220142e-22
3.729407104e-22
4.706341569e-22
5.630047434e-22
6.520290384e-22
7.397643069e-22
8.282476169e-22
9.193928785e-22
1.014891728e-21
1.116124212e-21
1.224085017e-21
1.339330241e-21
1.461948714e-21
1.591560325e-21
1.727342078e-21
1.868080813e-21
2.012249387e-21
2.158101257e-21
2.30377695e-21
2.447414502e-21
2.587255533e-21
2.721738642e-21
2.849572679e-21
2.969783966e-21
3.081733871e-21
3.185105691e-21
3.27986262e-21
3.36618147e-21
3.444369006e-21
3.514769579e-21
3.577673386e-21
3.633234476e-21
3.681406383e-21
3.721901162e-21
3.754174911e-21
3.777439937e-21
3.79070105e-21
3.792811299e-21
3.782541078e-21
3.758654451e-21
3.719986982e-21
3.665521025e-21
3.594456273e-21
3.506275071e-21
3.40080335e-21
3.278268088e-21
3.139351233e-21
2.98523752e-21
2.817650387e-21
2.638866445e-21
2.45169576e-21
2.259413532e-21
2.065629683e-21
1.874086826e-21
1.688384788e-21
1.511641178e-21
1.34611076e-21
1.192801109e-21
1.051135316e-21
9.187221317e-22
7.912971027e-22
6.628933011e-22
5.262849655e-22
3.737220985e-22
1.979393179e-22
-6.619361686e-24
-2.424623725e-22
-5.077439745e-22
-7.951678676e-22
-1.09129966e-21
-1.37648545e-21
-1.62554905e-21
-1.809386425e-21
-1.897496033e-21
-1.861379729e-21
-1.67862904e-21
-1.337388019e-21
-8.407701137e-22
-2.107204993e-22
5.092283978e-22
1.252839771e-21
1.932155328e-21
2.440852006e-21
2.660127462e-21
2.466898097e-21
1.744460257e-21
3.950879451e-22
-1.642119931e-21
-4.382103185e-21
-5.754924614e-21
-6.250200111e-21
-6.540513853e-21
-6.78385989e-21
-7.02078733e-21
-7.258449539e-21
-7.498044658e-21
-7.739970329e-21
-7.984458518e-21
-8.231656696e-21
-8.481634167e-21
-8.734409722e-21
-8.989973226e-21
-9.2483057e-21
-9.50938662e-21
-9.773198186e-21
-1.003972851e-20
-1.030896966e-20
-1.058091717e-20
-1.085556863e-20
-1.113292413e-20
-1.141298647e-20
-1.16957587e-20
-1.198124669e-20
-1.226945688e-20
-1.256040091e-20
-1.285408981e-20
-1.315053914e-20
-1.344976542e-20
-1.375179074e-20
-1.405663789e-20
-1.436433505e-20
-1.467491283e-20
-1.498840579e-20
-1.530485398e-20
-1.562430004e-20
-1.594679172e-20
-1.627238255e-20
-1.660113e-20
-1.693309707e-20
-1.726835293e-20
-1.760697245e-20
-1.794903691e-20
-1.829463304e-20
-1.864385574e-20
-1.89968066e-20
-1.935359363e-20
-1.971433366e-20
-2.007915165e-20
-2.044817968e-20
-2.082155983e-20
-2.119944222e-20
-2.158198737e-20
-2.196936408e-20
-2.236175209e-20
-2.275934139e-20
-2.316233279e-20
-2.357093809e-20
-2.398538006e-20
-2.440589336e-20
-2.483272568e-20
-2.52661356e-20
-2.570639606e-20
-2.615379171e-20
-2.660862198e-20
-2.707119843e-20
-2.754184835e-20
-2.802091291e-20
-2.850874725e-20
-2.90057231e-20
-2.95122261e-20
-3.00286581e-20
-3.055543614e-20
-3.10929951e-20
-3.164178381e-20
-3.220227022e-20
-3.277493665e-20
-3.336028403e-20
-3.395882937e-20
-3.457110786e-20
-3.519767138e-20
-3.583908932e-20
-3.649594967e-20
-3.716885528e-20
-3.785843007e-20
-3.856531249e-20
-3.929016076e-20
-4.003364912e-20
-4.079646868e-20
-4.157932903e-20
-4.238295589e-20
-4.320809133e-20
-4.405549449e-20
-4.49259399e-20
-4.582021784e-20
-4.673913448e-20
-4.76835093e-20
-4.865417725e-20
-4.965198623e-20
-5.067779748e-20
-5.173248463e-20
-5.281693186e-20
-5.393203618e-20
-5.507870196e-20
-5.62578449e-20
-5.747038798e-20
-5.871725994e-20
-5.999939726e-20
-6.131774067e-20
-6.267323415e-20
-6.406682447e-20
-6.549945948e-20
-6.697208577e-20
-6.84856494e-20
-7.004109216e-20
-7.163935178e-20
-7.328135795e-20
-7.496803525e-20
-7.670029492e-20
-7.847903864e-20
-8.030515369e-20
-8.217951254e-20
-8.410297002e-20
-8.607636137e-20
-8.810050172e-20
-9.017618036e-20
-9.230416395e-20
-9.448518893e-20
-9.67199641e-20
-9.900916454e-20
-1.013534315e-19
-1.037533703e-19
-1.062095467e-19
-1.087224869e-19
-1.112926718e-19
-1.139205371e-19
-1.166064721e-19
-1.193508144e-19
-1.221538496e-19
-1.250158103e-19
-1.279368693e-19
-1.309171425e-19
-1.339566837e-19
-1.370554851e-19
-1.402134713e-19
-1.434305023e-19
-1.467063661e-19
-1.500407822e-19
-1.534333972e-19
-1.568837821e-19
-1.603914337e-19
-1.639557695e-19
-1.675761313e-19
-1.712517783e-19
-1.74981891e-19
-1.787655666e-19
-1.826018202e-19
-1.864895849e-19
-1.904277081e-19
-1.944149546e-19
-1.984500051e-19
-2.025314554e-19
-2.066578197e-19
-2.108275255e-19
-2.150389203e-19
-2.19290271e-19
-2.235797599e-19
-2.279054939e-19
-2.322655001e-19
-2.366577305e-19
-2.410800648e-19
-2.455303077e-19
-2.500061991e-19
-2.545054113e-19
-2.590255532e-19
-2.635641748e-19
-2.681187724e-19
-2.726867877e-19
-2.772656165e-19
-2.818526138e-19
-2.864450929e-19
-2.910403372e-19
-2.95635603e-19
-3.002281247e-19
-3.048151198e-19
-3.093938012e-19
-3.139613751e-19
-3.185150569e-19
-3.230520711e-19
-3.275696641e-19
-3.320651115e-19
-3.365357227e-19
-3.409788546e-19
-3.453919159e-19
-3.497723808e-19
-3.541177965e-19
-3.584257913e-19
-3.626940879e-19
-3.669205132e-19
-3.711030081e-19
-3.752396382e-19
-3.793286089e-19
-3.833682703e-19
-3.873571416e-19
-3.912939058e-19
-3.951774385e-19
-3.990068154e-19
-4.027813211e-19
-4.065004688e-19
-4.10164015e-19
-4.137719643e-19
-4.173246011e-19
-4.208224838e-19
-4.242664802e-19
-4.276577677e-19
-4.309978564e-19
-4.342886113e-19
-4.375322564e-19
-4.407314006e-19
-4.438890515e-19
-4.470086384e-19
-4.500940281e-19
-4.5314954e-19
-4.561799718e-19
-4.591906179e-19
-4.621872886e-19
-4.651763298e-19
-4.681646508e-19
-4.711597437e-19
-4.741696985e-19
-4.772032421e-19
-4.802697561e-19
-4.83379296e-19
-4.865426301e-19
-4.897712524e-19
-4.930774251e-19
-4.964741987e-19
-4.999754464e-19
-5.03595898e-19
-5.07351167e-19
-5.112577871e-19
-5.153332529e-19
-5.19596055e-19
-5.240657143e-19
-5.287628288e-19
-5.337091212e-19
-5.389274695e-19
-5.444419614e-19
-5.5027796e-19
-5.564621219e-19
-5.630224824e-19
-5.699885073e-19
-5.773911416e-19
-5.852628829e-19
-5.936378541e-19
-6.025518679e-19
-6.120424841e-19
-6.221491353e-19
-6.329135433e-19
-6.443844153e-19
-6.566679641e-19
-6.704121963e-19
-6.905503917e-19
-7.387234402e-19
-7.956789203e-19
-8.710987161e-19
-9.897831537e-19
-1.101250861e-18
-1.199957645e-18
-1.284307736e-18
-1.352491225e-18
-1.402992266e-18
-1.43429035e-18
-1.444746329e-18
-1.432785562e-18
-1.397071485e-18
-1.336070975e-18
-1.259808407e-18
-1.251691932e-18
-1.24285143e-18
-1.227424052e-18
-1.210695279e-18
-1.220579923e-18
-1.257812994e-18
-1.30424864e-18
-1.354592596e-18
-1.408053656e-18
-1.464654253e-18
-1.524543992e-18
-1.587897614e-18
-1.65490211e-18
-1.72575579e-18
-1.800668931e-18
-1.879864841e-18
-1.963580837e-18
-2.05206958e-18
-2.145600487e-18
-2.244461261e-18
-2.34895972e-18
-2.459425848e-18
-2.576214025e-18
-2.699705703e-18
-2.830312284e-18
-2.968478588e-18
-3.114686576e-18
-3.269459832e-18
-3.433368509e-18
-3.607035065e-18
-3.791140862e-18
-3.986433615e-18
-4.193736099e-18
-4.413955987e-18
-4.648097273e-18
-4.897273294e-18
-5.162721882e-18
-5.445822572e-18
-5.748116647e-18
-6.071330087e-18
-6.417400062e-18
-6.788505611e-18
-7.187102779e-18
-7.615965563e-18
-8.078232913e-18
-8.577463325e-18
-9.11769775e-18
-9.703532874e-18
-1.034020564e-17
-1.103369172e-17
-1.179081967e-17
-1.261940408e-17
-1.352840068e-17
-1.452808755e-17
-1.563027732e-17
-1.684856629e-17
-1.819862789e-17
-1.96985592e-17
-2.136929217e-17
-2.32350835e-17
-2.532410092e-17
-2.766912948e-17
-3.030842565e-17
-3.32867596e-17
-3.665669303e-17
-4.048015917e-17
-4.483043064e-17
-4.979458899e-17
-5.547664906e-17
-6.20015422e-17
-6.952023329e-17
-7.821634305e-17
-8.831477812e-17
-1.000930518e-16
-1.138962241e-16
-1.301567265e-16
-1.494208002e-16
-1.723839108e-16
-1.999383724e-16
-2.332376108e-16
-2.737831369e-16
-3.235425615e-16
-3.851100755e-16
-4.619250992e-16
-5.585706365e-16
-6.811809547e-16
-8.379992518e-16
-1.040141227e-15
-1.302641357e-15
-1.645887511e-15
-2.097589054e-15
-2.695478038e-15
-3.491017941e-15
-4.554497354e-15
-5.982027706e-15
-7.905159184e-15
-1.050409732e-14
-1.402587279e-14
-1.880932605e-14
-2.53194716e-14
-3.4194775e-14
-4.631221511e-14
-6.287685207e-14
-8.554518015e-14
-1.165950877e-13
-1.591601578e-13
-2.175528653e-13
-2.977107171e-13
-4.078126042e-13
-5.591310957e-13
-7.672122574e-13
-1.0535108e-12
-1.44765938e-12
-1.990622733e-12
-2.739089125e-12
-3.771596156e-12
-5.197094352e-12
-7.166946817e-12
-9.891779019e-12
-1.366519212e-11
-1.889724764e-11
-2.616191688e-11
-3.626451817e-11
-5.033786931e-11
-6.997988049e-11
-9.745118915e-11
-1.359601239e-10
-1.900751802e-10
-2.663244313e-10
-3.740703955e-10
-5.267885135e-10
-7.439519712e-10
-1.053806798e-09
-1.497482197e-09
-2.135093436e-09
-3.05482948e-09
-4.386523044e-09
-6.321944953e-09
-9.145233206e-09
-1.327856853e-08
-1.935084798e-08
-2.830105559e-08
-4.153409859e-08
-6.115617851e-08
-9.033127931e-08
-1.338235208e-07
-1.988281557e-07
-2.96258753e-07
-4.427728708e-07
-6.640294554e-07
-1.000069453e-06
-1.514483185e-06
-2.310541342e-06
-3.560466202e-06
-5.560009301e-06
-8.832638129e-06
-1.433283852e-05
-2.385348196e-05
-4.087388975e-05
-7.243039414e-05
-0.0001335750384
-0.0002588854245
-0.0005338682631
-0.001182353529
-0.002807185497
-0.00703110829
-0.01811578692
-0.04678289439
-0.1185037212
-0.2890999372
-0.6737312682
-1.4642842
-3.033623966
-5.932219883
-11.1746382
-16.12007924
-18.93870774
-12.39144987
14.14099427
66.56868917
127.5204016
147.4200244
107.2237194
53.12016711
21.10495335
6.158026308
4.852947012
3.873346405
5.191682285
6.82017377
9.094586966
9.03854772
7.800471143
5.694226913
4.474186187
2.544440055
0.9775407517
-0.1794180116
-0.915839158
-1.174100997
-1.169595969
-0.9842402171
-0.7873526934
-0.5894687702
-0.4281038558
-0.3025671834
-0.2099204052
-0.1438948067
-0.09802204992
-0.06614144327
-0.04374519403
-0.02879461119
-0.01887574632
-0.0123137371
-0.008010199284
-0.005219437876
-0.003412319787
-0.002238810656
-0.001473208802
-0.0009565428682
-0.0006191941913
-0.0004032986639
-0.0002616101918
-0.0001690647847
-0.0001088901728
-6.991706398e-05
-4.476172748e-05
-2.85600169e-05
-1.817118963e-05
-1.152173965e-05
-7.278114393e-06
-4.578331459e-06
-2.86659567e-06
-1.785396893e-06
-1.105334873e-06
-6.795966622e-07
-4.144901965e-07
-2.504105249e-07
-1.495667116e-07
-8.809157293e-08
-5.097579807e-08
-2.882581594e-08
-1.579463938e-08
-8.265440808e-09
-4.016949015e-09
-1.696377842e-09
-4.880213046e-10
9.409976296e-11
3.352526664e-10
3.997555672e-10
3.799278256e-10
3.258731168e-10
2.634155447e-10
2.047678166e-10
1.547794505e-10
1.145248163e-10
8.331024223e-11
5.97562135e-11
4.234925145e-11
2.969778811e-11
2.062896801e-11
1.420477097e-11
9.701117068e-12
6.573338788e-12
4.419815449e-12
2.949124244e-12
1.952624305e-12
1.282666552e-12
8.358492093e-13
5.404725776e-13
3.268309765e-13
1.967075865e-13
1.177163207e-13
6.992897887e-14
4.114828737e-14
2.391502814e-14
1.367370499e-14
7.647803851e-15
4.267743086e-15
3.065383165e-15
2.030779481e-15
1.133628513e-15
5.744246946e-16
2.393628942e-16
4.900460512e-17
-5.069169978e-17
-9.559537656e-17
-1.089192337e-16
-1.052719791e-16
-9.3547592e-17
-7.893386164e-17
-6.427701046e-17
-5.098862618e-17
-3.963496132e-17
-3.031053741e-17
-2.286831378e-17
-1.705649542e-17
-1.259596932e-17
-9.220984481e-18
-6.697817743e-18
-4.70980769e-18
-3.238671866e-18
-2.215407688e-18
-1.507351527e-18
-1.019693787e-18
-6.857802221e-19
-4.581228337e-19
-3.041806411e-19
-2.008281913e-19
-1.318823595e-19
-8.61563301e-20
-5.599449234e-20
-3.620198331e-20
-2.327938367e-20
-1.488452822e-20
-9.458897013e-21
-5.97098236e-21
-3.741547506e-21
-2.325558975e-21
-1.432957912e-21
-8.7584738e-22
-5.290050416e-22
-3.144862617e-22
-1.865107838e-22
-1.101592473e-22
-6.458294352e-23
-3.74193813e-23
-2.119742855e-23
-1.162582451e-23
-6.069374129e-24
-2.915255642e-24
-1.181227425e-24
-2.731382117e-25
1.651489883e-25
3.445356745e-25
3.87911122e-25
3.6531641e-25
3.154429623e-25
2.586816564e-25
2.049723072e-25
1.584675738e-25
1.202603257e-25
8.994425141e-26
6.647997899e-26
4.8654136e-26
3.530546999e-26
2.542062543e-26
1.816055901e-26
1.285207426e-26
9.104832084e-27
5.899030121e-27
3.730317693e-27
2.353527716e-27
1.480535118e-27
9.279836655e-28
5.790884166e-28
3.594540765e-28
2.216811617e-28
1.356610912e-28
8.224354013e-29
4.92839276e-29
2.910763079e-29
1.687481128e-29
9.543164188e-30
5.64216777e-30
4.058425669e-30
2.895547521e-30
2.046883189e-30
1.436070451e-30
8.669282438e-31
4.05287274e-31
1.467370933e-31
1.063168139e-32
-5.390589941e-32
-7.829890762e-32
-8.146518466e-32
-7.444998262e-32
-6.34690261e-32
-5.186439777e-32
-4.119921106e-32
-3.208579923e-32
-2.465111175e-32
-1.883440604e-32
-1.405592442e-32
-1.044402451e-32
-7.656751009e-33
-5.598795509e-33
-4.048637028e-33
-2.775328105e-33
-1.946795021e-33
-1.384984565e-33
-9.608478109e-34
-6.536347563e-34
-4.567190578e-34
-3.091741922e-34
-2.092864449e-34
-1.452950784e-34
-9.643257028e-35
-5.931205206e-35
-4.041928878e-35
-1.853552812e-35
-7.499229884e-36
-9.960794831e-37
8.635875263e-36
1.383363998e-35
1.549213197e-35
1.328424371e-35
1.231837624e-35
1.263916934e-35
8.078956836e-36
5.500301697e-36
2.075853602e-36
2.079295457e-36
2.667446412e-36
1.609036494e-36
9.737530913e-37
4.054492614e-37
2.0183349e-37
1.166647197e-37
5.79612068e-38
1.523044093e-37
2.697637315e-37
4.961793938e-37
3.519574988e-37
2.799103174e-37
2.742797351e-37
2.928414079e-37
3.201872647e-37
4.852653885e-37
5.825459016e-37
5.491142345e-37
3.879783016e-37
2.233960763e-37
1.242516633e-37
8.76592484e-38
4.06360785e-38
1.153405788e-38
-2.000871777e-38
-2.106749827e-38
1.080705948e-38
7.064888895e-39
8.568641264e-39
1.080403783e-38
3.714058736e-39
-5.517221183e-41
-2.135462099e-39
-2.620583673e-39
-4.115836887e-39
-3.775693683e-39
-2.733174316e-39
-1.767261745e-39
5.32292498e-40
5.881648385e-40
1.326177689e-39
6.35080276e-40
-2.309829258e-40
-8.787600735e-40
-7.138914531e-40
8.780594103e-40
8.284676038e-40
-9.394699268e-41
-9.921299197e-40
-1.680511664e-40
-5.097516693e-41
1.742336251e-40
5.374332014e-40
2.620722984e-40
2.213677276e-40
1.972540598e-40
6.840025651e-41
1.119615201e-41
-1.351788901e-41
-1.324150194e-41
-2.111391984e-41
-7.470400088e-42
2.866041316e-41
7.853809077e-42
1.906279391e-41
4.692629591e-41
3.835713739e-41
4.398753349e-42
2.536871612e-41
1.040262483e-41
5.132711797e-42
1.291548722e-41
3.847594724e-41
2.319352857e-41
1.604217895e-41
6.459144147e-42
9.401068617e-42
6.340401446e-42
-5.368698211e-43
-6.844910064e-42
-2.884475411e-42
-5.792860884e-42
-7.624589043e-42
-7.450580081e-42
-5.424304772e-42
-6.663516655e-42
-6.879300053e-42
-9.035272039e-42
-1.078750634e-41
-1.029895036e-41
-9.452130539e-42
-7.534037112e-42
-5.645304237e-42
-2.20043408e-42
-1.158343785e-42
-4.53882127e-43
9.066376009e-44
6.216742509e-43
5.859514761e-43
5.990504524e-43
7.795941442e-43
5.898119818e-43
6.997849668e-43
7.609201231e-43
6.870761636e-43
5.58926594e-43
2.691910335e-43
4.44631527e-44
7.140711158e-44
2.197564898e-43
2.826718257e-43
3.041898421e-43
1.089465096e-43
1.338299977e-44
-9.758934617e-44
-2.103582336e-44
3.154375107e-44
4.638978357e-44
7.184999749e-44
6.159037804e-44
5.579190067e-44
4.647650217e-44
1.586735462e-44
7.161729625e-45
2.926474558e-44
3.729971791e-44
2.722162866e-44
1.540363018e-45
-1.345116868e-44
-2.23387364e-44
-2.29293122e-44
-1.571832817e-44
-8.632636174e-45
-1.038586861e-46
3.442276387e-45
3.407717013e-45
4.91416173e-46
9.315050149e-46
1.907757675e-45
2.329333428e-45
3.283853305e-45
2.324819322e-45
2.005142968e-45
6.479285822e-46
3.517638156e-46
2.909482967e-46
4.120823883e-46
9.041963583e-46
5.02756407e-46
3.213444287e-46
5.474237921e-46
4.007668932e-46
-1.156629956e-46
-3.065264188e-46
-5.661290069e-46
-5.949835936e-46
-3.486200692e-46
-9.140220055e-47
7.997590502e-47
2.050986926e-47
6.194778657e-47
-2.208194025e-48
3.155705212e-47
5.324814673e-47
1.486543374e-47
3.317554418e-47
4.538785093e-47
4.956580005e-47
3.239701502e-47
-2.013261109e-47
-1.584824235e-47
-2.49401933e-47
2.02362117e-48
8.411776864e-48
7.586198639e-48
1.107477095e-47
9.830418854e-48
1.245482041e-47
1.49200585e-47
2.105679803e-47
2.309894412e-47
1.82568587e-47
1.098818329e-47
6.111439265e-48
6.156276356e-48
1.015147163e-47
1.182813561e-47
1.13671076e-47
1.272196029e-47
1.201610382e-47
1.216244409e-47
1.442749822e-47
1.42095542e-47
1.120686924e-47
1.015610261e-47
1.064835428e-47
9.597410022e-48
9.732415052e-48
8.439802119e-48
7.017297994e-48
5.72150115e-48
5.540633543e-48
7.385839991e-48
8.031868431e-48
7.27436281e-48
7.025484159e-48
6.769317508e-48
7.114473511e-48
5.963218263e-48
5.295543086e-48
4.056520958e-48
3.044747076e-48
1.601764155e-48
2.013489185e-48
2.370031768e-48
2.565111024e-48
2.833248294e-48
3.855225305e-48
4.067354112e-48
3.56634421e-48
3.186108637e-48
3.206939016e-48
2.657910042e-48
2.643273592e-48
3.397713761e-48
3.751441291e-48
3.355521492e-48
3.126165754e-48
3.337287468e-48
3.323376188e-48
2.097251497e-48
1.447321756e-48
7.681872885e-49
7.951940011e-49
1.192506971e-48
1.372704795e-48
1.572600785e-48
1.764588379e-48
2.10718535e-48
1.82034138e-48
1.496173624e-48
1.474596324e-48
1.409987635e-48
1.478921925e-48
1.468924099e-48
1.501273131e-48
1.210513464e-48
1.13920879e-48
8.761711226e-49
7.940069425e-49
6.895484581e-49
4.912572906e-49
1.25670178e-49
-1.138832029e-50
7.250490054e-50
2.06075749e-49
3.570373787e-49
2.844882602e-49
2.413400321e-49
3.806676716e-49
4.864700332e-49
2.463553936e-49
1.053723208e-49
1.06064456e-49
3.02303521e-49
2.935757652e-49
4.383353048e-49
4.538139453e-49
5.695571815e-49
3.974410517e-49
3.135629313e-49
2.405723106e-49
1.958831326e-49
2.065039435e-49
1.231403729e-49
1.655225553e-49
2.019057276e-49
2.278515849e-49
2.159835694e-49
6.44996746e-50
1.118279119e-49
2.166899317e-49
1.588322729e-49
8.01865604e-50
1.095211386e-49
1.075633462e-49
1.143186422e-49
1.174916954e-49
9.47471997e-50
7.468062164e-50
1.444958988e-49
1.501263348e-49
9.205824614e-50
1.591566463e-49
1.439227163e-49
1.669418048e-49
1.909141829e-49
1.880702802e-49
1.436401319e-49
1.031106773e-49
9.878758202e-50
8.570379429e-50
1.008439542e-49
1.001999626e-49
1.67615888e-49
1.679155356e-49
1.116343947e-49
5.939724109e-50
1.568685988e-50
1.236658973e-50
2.702781233e-50
-9.795909649e-51
9.589876153e-51
-6.044290001e-51
2.227513543e-51
9.47413367e-51
-1.414079244e-51
3.394226607e-51
2.311016476e-51
-1.013616569e-51
6.407024513e-52
4.872781085e-52
1.079536711e-52
3.753926642e-53
-7.748871859e-53
3.180610938e-53
7.487624918e-53
9.21338714e-54
-6.714646008e-54
5.621927962e-54
4.040707276e-55
-3.087707171e-55
-3.013049433e-55
-2.479681572e-55
-5.102331439e-56
-2.26257401e-56
1.659518411e-56
2.201113432e-56
7.003043358e-57
-7.189032704e-57
3.736191581e-57
-3.30163198e-58
-3.861169764e-59
-1.535110991e-58
1.695393398e-57
2.408752444e-57
5.860274398e-59
3.878772173e-59
-1.937479249e-58
3.222016189e-59
8.766924539e-59
-1.22838477e-59
-5.609753681e-58
-8.911100831e-60
1.287285937e-58
3.748690891e-60
-1.302478167e-58
5.014026895e-59
-1.95823002e-59
3.989271785e-59
1.339021338e-59
-1.462145571e-61
-6.339768468e-60
5.698401924e-60
-1.220167817e-60
-1.078970271e-60
-2.032077206e-61
5.264208928e-61
4.643463666e-61
-2.259094749e-61
8.147709334e-62
-1.114007809e-61
-1.081813948e-63
8.193176769e-63
5.275839559e-63
7.428266754e-65
-8.581515832e-64
-3.679730778e-63
-1.700242055e-64
-2.637889382e-63
-1.769913861e-64
-4.80327032e-64
6.615104319e-64
-4.21478209e-64
9.01971704e-66
1.812488379e-64
1.517596068e-64
-2.561546102e-65
-3.932930052e-65
-2.128140963e-65
3.343540699e-65
2.399238951e-65
-1.156666849e-65
-4.503838607e-66
9.725322785e-68
2.291344447e-66
3.279422481e-67
4.694170149e-67
-9.048140444e-68
-1.121068582e-67
-1.319130881e-68
-9.794050854e-69
1.787732142e-69
4.937582703e-69
2.646648884e-70
1.595718403e-69
-4.246936825e-70
-1.963294001e-71
-6.989032513e-71
1.258564937e-72
1.955749683e-70
1.129952344e-70
-7.629481377e-71
-1.113404517e-71
-1.920069705e-73
-2.631646832e-72
-1.652742501e-71
5.408415789e-72
2.177914483e-71
3.031504928e-73
-4.126491496e-72
-1.826640243e-72
1.487123569e-71
-1.49443194e-72
3.556652597e-74
8.13061489e-72
-1.19446253e-72
2.878031607e-72
2.549208039e-72
-1.331348315e-72
5.602053091e-73
9.108339051e-73
6.26464404e-73
-1.045216183e-71
-6.380040428e-72
-1.510368529e-72
3.470362344e-72
6.871413067e-73
-6.242007617e-72
3.555053985e-73
-1.55402342e-71
-1.465544783e-71
-6.453797235e-72
5.04360552e-72
-1.545334679e-71
4.191903135e-73
-1.847866701e-71
-3.501291609e-72
-1.57065023e-71
-9.266485389e-72
-7.197488704e-74
3.450252684e-73
-2.50322852e-71
-1.463182186e-71
-3.028098061e-72
-1.183936683e-71
-1.627874999e-71
3.724049736e-73
-3.40953642e-71
-6.470561895e-72
-1.121463197e-71
-6.454284618e-73
1.286484056e-72
-1.527827931e-71
8.951839205e-72
-3.985671612e-72
3.218113688e-74
2.73248242e-71
-6.826256194e-73
-2.278266348e-72
-2.541438148e-72
1.710344082e-72
3.333151155e-74
2.635935634e-71
2.956470407e-73
3.172922304e-71
3.088597725e-73
-1.483738414e-71
-9.138855389e-72
5.91471064e-72
2.100266513e-71
8.864414125e-73
-7.136872255e-72
-5.247971251e-72
-2.107954294e-72
7.307965463e-72
-2.367917255e-71
4.091380315e-74
-4.807409073e-72
-6.732556148e-74
7.913368988e-75
-2.248911096e-71
-2.030235885e-73
4.68122855e-75
-7.838487288e-72
1.620668298e-74
1.880652817e-71
-2.120538422e-71
-1.414474508e-71
-2.373931225e-72
-3.577468167e-72
-2.336244715e-74
-6.375114322e-75
-1.298433848e-72
2.943166935e-74
4.064924873e-73
2.590733918e-72
1.473704768e-73
5.129518963e-73
3.247602713e-72
-2.20524094e-72
-2.268955981e-71
-5.881634552e-72
-1.382335962e-72
1.853213498e-72
1.382421803e-73
-2.58357374e-72
2.744217463e-72
1.176087232e-72
-1.260151232e-72
-2.371434386e-72
-6.532000077e-72
1.561714649e-74
2.955458136e-74
4.294025038e-76
7.967575058e-73
4.28570329e-75
-2.93668902e-73
-2.423985051e-74
-1.289120193e-73
3.24346579e-73
-6.004016083e-74
-1.251057659e-75
-2.779180338e-73
1.659889017e-73
2.247738308e-73
-9.528566763e-75
-1.300375404e-72
8.700924046e-72
-4.07119816e-72
-6.16631788e-74
6.388658486e-73
-5.384577973e-72
-2.332119223e-72
-1.143995657e-71
4.102540086e-72
3.595379306e-72
3.292570113e-74
-1.113201649e-73
5.163313599e-76
1.835558675e-72
2.651950776e-71
-1.201850707e-71
1.420855788e-71
1.806134496e-72
-1.244123806e-73
1.471483395e-73
-3.576273609e-72
-1.414259578e-74
)
;

boundaryField
{
    inlet
    {
        type            calculated;
        value           uniform 0;
    }
    outlet
    {
        type            calculated;
        value           uniform -1.414259582e-74;
    }
    wall
    {
        type            empty;
    }
}


// ************************************************************************* //
