/*--------------------------------*- C++ -*----------------------------------*\
  =========                 |
  \\      /  F ield         | OpenFOAM: The Open Source CFD Toolbox
   \\    /   O peration     | Website:  https://openfoam.org
    \\  /    A nd           | Version:  7
     \\/     M anipulation  |
\*---------------------------------------------------------------------------*/
FoamFile
{
    version     2.0;
    format      ascii;
    class       volScalarField;
    location    "0.000558243009";
    object      ddt0(rho,CH2CHO);
}
// * * * * * * * * * * * * * * * * * * * * * * * * * * * * * * * * * * * * * //

dimensions      [1 -3 -1 0 0 0 0];

internalField   nonuniform List<scalar> 
1500
(
-1.678544229e-23
1.169312492e-23
2.41943051e-23
2.443970577e-23
1.867026115e-23
1.20302464e-23
6.748027706e-24
3.222176999e-24
1.081970328e-24
-2.001186519e-25
-1.032053545e-24
-1.651577037e-24
-2.167716423e-24
-2.619257642e-24
-3.012957384e-24
-3.344193804e-24
-3.605817742e-24
-3.791723618e-24
-3.898141575e-24
-3.923955133e-24
-3.870611302e-24
-3.741846158e-24
-3.543331799e-24
-3.282299624e-24
-2.967167636e-24
-2.607183849e-24
-2.212090187e-24
-1.791809692e-24
-1.356162279e-24
-9.146168251e-25
-4.760880718e-25
-4.878522789e-26
3.598842346e-25
7.433574884e-25
1.095913022e-24
1.412632778e-24
1.689344326e-24
1.922557287e-24
2.109406858e-24
2.24761434e-24
2.335470676e-24
2.371844774e-24
2.356213937e-24
2.288710135e-24
2.170173703e-24
2.002204726e-24
1.787202494e-24
1.528384571e-24
1.229778972e-24
8.961853646e-25
5.331042299e-25
1.466355747e-25
-2.566487039e-25
-6.698526819e-25
-1.085917265e-24
-1.497786236e-24
-1.898569843e-24
-2.28169912e-24
-2.641065318e-24
-2.971140364e-24
-3.267075827e-24
-3.524779078e-24
-3.740966681e-24
-3.913195818e-24
-4.039875149e-24
-4.120256709e-24
-4.15441056e-24
-4.143183833e-24
-4.088145556e-24
-3.991518614e-24
-3.856100308e-24
-3.685173139e-24
-3.482407819e-24
-3.251760933e-24
-2.997370126e-24
-2.723450033e-24
-2.434192675e-24
-2.133675912e-24
-1.825783333e-24
-1.514138623e-24
-1.202056507e-24
-8.925116588e-25
-5.881256907e-25
-2.91171352e-25
-3.592094611e-27
2.729657886e-25
5.371118091e-25
7.876643022e-25
1.023601522e-24
1.244014451e-24
1.448064352e-24
1.634947561e-24
1.803869354e-24
1.954027863e-24
2.084608369e-24
2.194787621e-24
2.283747217e-24
2.350694629e-24
2.394890174e-24
2.415677953e-24
2.412518703e-24
2.385022507e-24
2.332979401e-24
2.256386102e-24
2.155467395e-24
2.030690973e-24
1.882775022e-24
1.71268823e-24
1.521642274e-24
1.311077413e-24
1.082642049e-24
8.381674912e-25
5.79639362e-25
3.091671198e-25
2.895324287e-26
-2.587367033e-25
-5.516019235e-25
-8.473315394e-25
-1.143626632e-24
-1.438219146e-24
-1.728888044e-24
-2.013473187e-24
-2.289887828e-24
-2.556130342e-24
-2.810295964e-24
-3.050589082e-24
-3.275336325e-24
-3.483000503e-24
-3.672195139e-24
-3.841699051e-24
-3.990470324e-24
-4.117658877e-24
-4.222616809e-24
-4.304905821e-24
-4.364301207e-24
-4.400792075e-24
-4.414577764e-24
-4.406060658e-24
-4.375835887e-24
-4.3246785e-24
-4.253528879e-24
-4.163477147e-24
-4.055747298e-24
-3.931681542e-24
-3.792725357e-24
-3.640413275e-24
-3.476355322e-24
-3.302223815e-24
-3.11973993e-24
-2.930659413e-24
-2.736756741e-24
-2.539807115e-24
-2.341565771e-24
-2.143744428e-24
-1.947984837e-24
-1.755829899e-24
-1.568693123e-24
-1.387827519e-24
-1.214295393e-24
-1.048940626e-24
-8.923652244e-25
-7.449118995e-25
-6.06654274e-25
-4.773960435e-25
-3.566800365e-25
-2.438076416e-25
-1.378684533e-25
-3.777946546e-26
5.766756627e-26
1.497524645e-25
2.397690473e-25
3.289663993e-25
4.18491933e-25
5.093393249e-25
6.023041778e-25
6.97949926e-25
7.965860768e-25
8.982600576e-25
1.002763157e-24
1.109650175e-24
1.218271417e-24
1.32781479e-24
1.437355044e-24
1.545906622e-24
1.652476283e-24
1.756111712e-24
1.8559427e-24
1.951211975e-24
2.041293878e-24
2.125699972e-24
2.204071981e-24
2.276163497e-24
2.341812865e-24
2.400910376e-24
2.453363329e-24
2.499062397e-24
2.537852503e-24
2.569510735e-24
2.593732938e-24
2.610129757e-24
2.618232056e-24
2.617504857e-24
2.6073686e-24
2.587226316e-24
2.556495323e-24
2.514642437e-24
2.461221741e-24
2.395914315e-24
2.318568997e-24
2.229242914e-24
2.128239587e-24
2.016141305e-24
1.893831171e-24
1.762499233e-24
1.623626479e-24
1.478940706e-24
1.330339947e-24
1.179781647e-24
1.029139956e-24
8.800386806e-25
7.336731239e-25
5.906395879e-25
4.507959977e-25
3.131796611e-25
1.76008087e-25
3.678503879e-26
-1.074737276e-25
-2.5989197e-25
-4.232737143e-25
-5.995622037e-25
-7.892640104e-25
-9.90901158e-25
-1.200567111e-24
-1.411668177e-24
-1.614929829e-24
-1.798735157e-24
-1.949839187e-24
-2.0544697e-24
-2.099783577e-24
-2.075601096e-24
-1.976293796e-24
-1.802662038e-24
-1.563604904e-24
-1.277398281e-24
-9.723902113e-25
-6.871539337e-25
-4.698930233e-25
-3.777433793e-25
-4.714028291e-25
-8.093174315e-25
-1.098512367e-24
-1.145497644e-24
-1.191339699e-24
-1.238665998e-24
-1.287018616e-24
-1.336128828e-24
-1.386191887e-24
-1.437505323e-24
-1.49028882e-24
-1.544666372e-24
-1.600691547e-24
-1.658383367e-24
-1.717745443e-24
-1.778782488e-24
-1.84150193e-24
-1.905914702e-24
-1.972037348e-24
-2.039888619e-24
-2.109489049e-24
-2.180859309e-24
-2.254021194e-24
-2.328998133e-24
-2.405811846e-24
-2.484485795e-24
-2.56504198e-24
-2.64750709e-24
-2.731904368e-24
-2.818260467e-24
-2.90660034e-24
-2.996953385e-24
-3.089346559e-24
-3.183810604e-24
-3.280375829e-24
-3.37907394e-24
-3.479939991e-24
-3.583008174e-24
-3.688315097e-24
-3.795900482e-24
-3.905804433e-24
-4.018069461e-24
-4.132741109e-24
-4.249867158e-24
-4.369498407e-24
-4.491687199e-24
-4.616490954e-24
-4.743969974e-24
-4.874187004e-24
-5.007210317e-24
-5.143112677e-24
-5.281969889e-24
-5.423864638e-24
-5.568883774e-24
-5.717121517e-24
-5.868676554e-24
-6.023655718e-24
-6.182173108e-24
-6.344351024e-24
-6.51032026e-24
-6.680220385e-24
-6.854201156e-24
-7.032424446e-24
-7.215061629e-24
-7.402298771e-24
-7.594333515e-24
-7.791379767e-24
-7.99366485e-24
-8.201435024e-24
-8.41495382e-24
-8.6345031e-24
-8.86038763e-24
-9.092932511e-24
-9.332487643e-24
-9.579427598e-24
-9.834156768e-24
-1.009710571e-23
-1.036873992e-23
-1.064955527e-23
-1.094008588e-23
-1.124090298e-23
-1.155262003e-23
-1.187589342e-23
-1.221142631e-23
-1.255997303e-23
-1.292233734e-23
-1.329938403e-23
-1.369203382e-23
-1.410127417e-23
-1.452815828e-23
-1.497381058e-23
-1.543943331e-23
-1.592630814e-23
-1.643580153e-23
-1.696937085e-23
-1.752856764e-23
-1.811504394e-23
-1.873055828e-23
-1.937697868e-23
-2.005629186e-23
-2.077060674e-23
-2.152216185e-23
-2.231333131e-23
-2.314662983e-23
-2.402472334e-23
-2.495042966e-23
-2.592673173e-23
-2.69567805e-23
-2.804390141e-23
-2.91916053e-23
-3.040359268e-23
-3.168376103e-23
-3.303621302e-23
-3.446526314e-23
-3.597544355e-23
-3.757151375e-23
-3.925846463e-23
-4.104152734e-23
-4.292617679e-23
-4.491814363e-23
-4.702341208e-23
-4.924823244e-23
-5.15991226e-23
-5.408287468e-23
-5.670655825e-23
-5.947752414e-23
-6.240340953e-23
-6.549213609e-23
-6.875191836e-23
-7.219125825e-23
-7.581895119e-23
-7.964408102e-23
-8.367602108e-23
-8.792443194e-23
-9.239925666e-23
-9.711071886e-23
-1.02069313e-22
-1.072858004e-22
-1.127712029e-22
-1.185367896e-22
-1.245940689e-22
-1.309547778e-22
-1.376308637e-22
-1.446344748e-22
-1.519779409e-22
-1.59673759e-22
-1.677345689e-22
-1.761731387e-22
-1.850023363e-22
-1.94235112e-22
-2.038844701e-22
-2.139634412e-22
-2.244850572e-22
-2.354623185e-22
-2.469081676e-22
-2.588354514e-22
-2.712568927e-22
-2.841850518e-22
-2.976322922e-22
-3.116107457e-22
-3.261322693e-22
-3.412084118e-22
-3.568503717e-22
-3.730689559e-22
-3.898745438e-22
-4.072770376e-22
-4.252858302e-22
-4.4390976e-22
-4.631570649e-22
-4.830353494e-22
-5.035515366e-22
-5.24711832e-22
-5.465216838e-22
-5.689857384e-22
-5.921078121e-22
-6.158908475e-22
-6.403368791e-22
-6.654470025e-22
-6.912213433e-22
-7.176590222e-22
-7.447581326e-22
-7.725157165e-22
-8.009277337e-22
-8.299890514e-22
-8.59693423e-22
-8.900334733e-22
-9.210006863e-22
-9.525854058e-22
-9.847768186e-22
-1.017562967e-21
-1.050930742e-21
-1.084865895e-21
-1.119353052e-21
-1.154375719e-21
-1.189916312e-21
-1.225956171e-21
-1.262475597e-21
-1.299453875e-21
-1.336869315e-21
-1.374699292e-21
-1.41292029e-21
-1.451507951e-21
-1.490437127e-21
-1.529681945e-21
-1.569215855e-21
-1.609011719e-21
-1.649041851e-21
-1.689278118e-21
-1.729692012e-21
-1.770254719e-21
-1.810937226e-21
-1.851710401e-21
-1.89254508e-21
-1.933412191e-21
-1.97428282e-21
-2.01512835e-21
-2.055920546e-21
-2.096631675e-21
-2.137234638e-21
-2.17770306e-21
-2.218011432e-21
-2.258135229e-21
-2.298051046e-21
-2.337736727e-21
-2.37717149e-21
-2.416336081e-21
-2.455212907e-21
-2.493786184e-21
-2.532042076e-21
-2.569968863e-21
-2.607557084e-21
-2.644799683e-21
-2.6816922e-21
-2.71823292e-21
-2.754423031e-21
-2.79026682e-21
-2.825771819e-21
-2.860949018e-21
-2.895813026e-21
-2.93038227e-21
-2.964679193e-21
-2.998730437e-21
-3.032567053e-21
-3.066224717e-21
-3.099743938e-21
-3.133170266e-21
-3.166554527e-21
-3.199953066e-21
-3.233427944e-21
-3.267047203e-21
-3.300885141e-21
-3.335022495e-21
-3.369546766e-21
-3.404552471e-21
-3.440141391e-21
-3.476422867e-21
-3.513514106e-21
-3.551540439e-21
-3.590635424e-21
-3.630940305e-21
-3.672600012e-21
-3.715749822e-21
-3.760516155e-21
-3.807445535e-21
-3.861108871e-21
-3.939429889e-21
-4.023681098e-21
-4.115645379e-21
-4.22855893e-21
-4.336721695e-21
-4.440359065e-21
-4.540038571e-21
-4.635667617e-21
-4.726793578e-21
-4.812964417e-21
-4.893869802e-21
-4.969213474e-21
-5.038338511e-21
-5.099853455e-21
-5.155765218e-21
-5.24767629e-21
-5.338167358e-21
-5.427420932e-21
-5.521475945e-21
-5.644045783e-21
-5.795494248e-21
-5.960723033e-21
-6.136199175e-21
-6.322135232e-21
-6.519213658e-21
-6.728098798e-21
-6.949436517e-21
-7.183881035e-21
-7.432106673e-21
-7.694812057e-21
-7.972722199e-21
-8.266589467e-21
-8.577194881e-21
-8.905349282e-21
-9.251894441e-21
-9.617704478e-21
-1.000368733e-20
-1.041078616e-20
-1.08399812e-20
-1.129229133e-20
-1.176877625e-20
-1.227053831e-20
-1.279872496e-20
-1.335453103e-20
-1.393920135e-20
-1.455403363e-20
-1.520038129e-20
-1.587965689e-20
-1.659333544e-20
-1.73429582e-20
-1.813013657e-20
-1.895655655e-20
-1.982398311e-20
-2.073426525e-20
-2.168934119e-20
-2.269124401e-20
-2.37421078e-20
-2.484417391e-20
-2.599979822e-20
-2.721145844e-20
-2.848176248e-20
-2.981345691e-20
-3.120943706e-20
-3.267275721e-20
-3.420664254e-20
-3.58145019e-20
-3.749994271e-20
-3.926678751e-20
-4.111909329e-20
-4.306117373e-20
-4.509762569e-20
-4.72333609e-20
-4.947364407e-20
-5.182413979e-20
-5.42909706e-20
-5.688078913e-20
-5.960087007e-20
-6.245922519e-20
-6.546475243e-20
-6.86274256e-20
-7.195854015e-20
-7.547103116e-20
-7.917988591e-20
-8.310268136e-20
-8.726028476e-20
-9.167776887e-20
-9.638560875e-20
-1.014212482e-19
-1.068311519e-19
-1.126734959e-19
-1.190216953e-19
-1.259690338e-19
-1.336347402e-19
-1.421719666e-19
-1.517782673e-19
-1.627093645e-19
-1.752972391e-19
-1.899739065e-19
-2.073026818e-19
-2.280192938e-19
-2.530859787e-19
-2.837626686e-19
-3.217007221e-19
-3.690663818e-19
-4.287034782e-19
-5.043479784e-19
-6.009110754e-19
-7.248530045e-19
-8.846770671e-19
-1.091583127e-18
-1.360332991e-18
-1.710397713e-18
-2.167480746e-18
-2.765543035e-18
-3.549500065e-18
-4.578820462e-18
-5.932337635e-18
-7.714698189e-18
-1.006502619e-17
-1.316859791e-17
-1.727262248e-17
-2.27076465e-17
-2.991669774e-17
-3.949513167e-17
-5.224536048e-17
-6.925239823e-17
-9.198870347e-17
-1.224605367e-16
-1.634135679e-16
-2.186237119e-16
-2.933116334e-16
-3.947384429e-16
-5.330689397e-16
-7.226312524e-16
-9.837674058e-16
-1.345581019e-15
-1.850063671e-15
-2.558346672e-15
-3.560255497e-15
-4.989052555e-15
-7.04441037e-15
-1.002855446e-14
-1.440363845e-14
-2.088356902e-14
-3.058193229e-14
-4.525118106e-14
-6.767038713e-14
-1.022717481e-13
-1.56145565e-13
-2.406316256e-13
-3.737829973e-13
-5.840616265e-13
-9.156205902e-13
-1.435402281e-12
-2.241922478e-12
-3.475778277e-12
-5.335411239e-12
-8.120505171e-12
-1.239661906e-11
-1.960408102e-11
-3.409203165e-11
-6.927244734e-11
-1.646932312e-10
-4.299141256e-10
-1.149717563e-09
-3.020667824e-09
-7.651327466e-09
-1.85598684e-08
-4.306230574e-08
-9.571112313e-08
-2.044336518e-07
-4.213031205e-07
-8.403398374e-07
-1.623557878e-06
-3.042081739e-06
-5.603197152e-06
-1.051934647e-05
-2.091598359e-05
-4.403800031e-05
-9.489556662e-05
-0.0002027713285
-0.0004223997524
-0.0008507426034
-0.001648266318
-0.003056024609
-0.005414474763
-0.009068473089
-0.014552958
-0.02235416852
-0.03348637758
-0.04461720124
-0.05473191712
-0.06212152134
-0.06322213667
-0.05474357766
-0.03368889938
0.005053728351
0.0755604255
0.1940827347
0.3772812544
0.6826966977
1.043530435
1.740711457
2.743175533
4.088859198
5.614765973
7.386565877
9.009244071
10.16076113
10.62463282
10.40639772
9.531533878
8.195070181
6.649251796
5.146936266
3.775043934
2.659972321
1.727158419
1.012549615
0.4909351288
0.1267724014
-0.1164777274
-0.2690570476
-0.3535302045
-0.3849451454
-0.3712017712
-0.3425676022
-0.3061702304
-0.2667871187
-0.2272079202
-0.1929200918
-0.1634241108
-0.1381604568
-0.1177739142
-0.09582725393
-0.07740556273
-0.0634832718
-0.05149653347
-0.0414199203
-0.03310493158
-0.02633538317
-0.02087693013
-0.01648847391
-0.01300260993
-0.01023316326
-0.008039755729
-0.006307118549
-0.004941536198
-0.003867363076
-0.00302387286
-0.002362531244
-0.00184469279
-0.00143968851
-0.001123242041
-0.0008761922277
-0.0006834490423
-0.0005331526913
-0.0004159991373
-0.0003247012009
-0.0002535595623
-0.000198122349
-0.0001549158504
-0.0001212320692
-9.496152494e-05
-7.446195369e-05
-5.845541206e-05
-4.594776926e-05
-3.61658162e-05
-2.850820203e-05
-2.250720206e-05
-1.779895486e-05
-1.410031148e-05
-1.119083952e-05
-8.898841632e-06
-7.09049682e-06
-5.661429106e-06
-4.530161704e-06
-3.633034951e-06
-2.920260175e-06
-2.352854873e-06
-1.900261534e-06
-1.538496797e-06
-1.248712034e-06
-1.016073197e-06
-8.288884801e-07
-6.779284234e-07
-5.558955324e-07
-4.570101379e-07
-3.766866819e-07
-3.112804042e-07
-2.578888907e-07
-2.141964043e-07
-1.783516185e-07
-1.488714568e-07
-1.245653542e-07
-1.044755173e-07
-8.782973003e-08
-7.400401267e-08
-6.249302706e-08
-5.288658234e-08
-4.485095046e-08
-3.811397995e-08
-3.24532151e-08
-2.768639425e-08
-2.366383665e-08
-2.026233038e-08
-1.738021594e-08
-1.493342243e-08
-1.285226524e-08
-1.107885399e-08
-9.564989861e-09
-8.270455203e-09
-7.161620082e-09
-6.210304309e-09
-5.392845921e-09
-4.689337087e-09
-4.082996088e-09
-3.559649519e-09
-3.107304873e-09
-2.715796798e-09
-2.376493957e-09
-2.082055272e-09
-1.826226507e-09
-1.603670952e-09
-1.409828224e-09
-1.240795445e-09
-1.093227381e-09
-9.642529031e-10
-8.51404451e-10
-7.525584927e-10
-6.658850264e-10
-5.898053024e-10
-5.229553707e-10
-4.641558005e-10
-4.123852663e-10
-3.667583996e-10
-3.265068355e-10
-2.909630838e-10
-2.595466282e-10
-2.317520413e-10
-2.07138903e-10
-1.8532294e-10
-1.659685446e-10
-1.487824353e-10
-1.335079359e-10
-1.199203014e-10
-1.07822502e-10
-9.704170196e-11
-8.742609569e-11
-7.884226631e-11
-7.117277765e-11
-6.431431377e-11
-5.817580456e-11
-5.267690849e-11
-4.774666279e-11
-4.332245248e-11
-3.934895618e-11
-3.577712228e-11
-3.256354151e-11
-2.9669752e-11
-2.706163078e-11
-2.470887939e-11
-2.25846676e-11
-2.066505507e-11
-1.892878376e-11
-1.735691364e-11
-1.593258852e-11
-1.464077252e-11
-1.346805388e-11
-1.240245823e-11
-1.143326723e-11
-1.055096501e-11
-9.746980677e-12
-9.013656553e-12
-8.344143757e-12
-7.732302104e-12
-7.172613788e-12
-6.660108726e-12
-6.19037505e-12
-5.759385428e-12
-5.363554219e-12
-4.999657739e-12
-4.664804653e-12
-4.35635609e-12
-4.071946077e-12
-3.809433374e-12
-3.566892632e-12
-3.342572438e-12
-3.134902488e-12
-2.942456547e-12
-2.763962464e-12
-2.598224758e-12
-2.444188599e-12
-2.300888377e-12
-2.167461646e-12
-2.043106043e-12
-1.927103186e-12
-1.818795756e-12
-1.717583468e-12
-1.622914818e-12
-1.534292467e-12
-1.451255624e-12
-1.373392634e-12
-1.300319832e-12
-1.231682169e-12
-1.167172627e-12
-1.106507909e-12
-1.049402152e-12
-9.956212926e-13
-9.449223865e-13
-8.971086253e-13
-8.519797277e-13
-8.093629192e-13
-7.690856385e-13
-7.310087455e-13
-6.949867366e-13
-6.608851095e-13
-6.285875231e-13
-5.979919493e-13
-5.689866538e-13
-5.414751549e-13
-5.153664313e-13
-4.905941874e-13
-4.670744828e-13
-4.447268769e-13
-4.234807244e-13
-4.032807556e-13
-3.840793213e-13
-3.658133024e-13
-3.484317447e-13
-3.318884864e-13
-3.161329631e-13
-3.011278262e-13
-2.868358397e-13
-2.732158096e-13
-2.602322831e-13
-2.47863781e-13
-2.36069887e-13
-2.248229167e-13
-2.140938992e-13
-2.038623878e-13
-1.9410166e-13
-1.847892929e-13
-1.759056816e-13
-1.674275058e-13
-1.593293669e-13
-1.516003129e-13
-1.442217643e-13
-1.371787194e-13
-1.304545946e-13
-1.240337337e-13
-1.178975696e-13
-1.120369908e-13
-1.0644156e-13
-1.010978513e-13
-9.599064804e-14
-9.111434574e-14
-8.645620596e-14
-8.201084965e-14
-7.776674722e-14
-7.371128554e-14
-6.983897311e-14
-6.613773886e-14
-6.260297932e-14
-5.923125082e-14
-5.600705153e-14
-5.293047245e-14
-4.99972299e-14
-4.719462702e-14
-4.451854226e-14
-4.196819298e-14
-3.953171474e-14
-3.720733402e-14
-3.498701954e-14
-3.287425814e-14
-3.085543893e-14
-2.89277772e-14
-2.709156833e-14
-2.534088423e-14
-2.366981731e-14
-2.207989179e-14
-2.056531693e-14
-1.912317379e-14
-1.775351856e-14
-1.644682252e-14
-1.520185372e-14
-1.401489213e-14
-1.288596975e-14
-1.181253015e-14
-1.079087872e-14
-9.820362188e-15
-8.895505167e-15
-8.018734364e-15
-7.18366454e-15
-6.391212315e-15
-5.643541193e-15
-4.934095018e-15
-4.261426853e-15
-3.623644864e-15
-3.018443199e-15
-2.444747426e-15
-1.902079537e-15
-1.389484339e-15
-9.047782953e-16
-4.477525606e-16
-1.67917748e-17
3.901401809e-16
7.740557758e-16
1.134559418e-15
1.47762834e-15
1.798140212e-15
2.098927914e-15
2.377918318e-15
2.639611922e-15
2.885744019e-15
3.114986556e-15
3.328603936e-15
3.53018869e-15
3.717102231e-15
3.892283134e-15
4.053407488e-15
4.202602026e-15
4.339810802e-15
4.464489636e-15
4.578582706e-15
4.681732963e-15
4.776348769e-15
4.861173676e-15
4.937315455e-15
5.007773758e-15
5.070344282e-15
5.123897255e-15
5.170143679e-15
5.209890595e-15
5.242658283e-15
5.269280838e-15
5.290915006e-15
5.3079768e-15
5.321307212e-15
5.328976652e-15
5.331085724e-15
5.327673685e-15
5.32138109e-15
5.31288278e-15
5.300483347e-15
5.284649326e-15
5.266209667e-15
5.24382278e-15
5.218345235e-15
5.189895016e-15
5.159234142e-15
5.127793727e-15
5.09341923e-15
5.057047709e-15
5.020178673e-15
4.98096502e-15
4.938457379e-15
4.895818674e-15
4.851905233e-15
4.806057822e-15
4.758533484e-15
4.71059966e-15
4.661484118e-15
4.612800562e-15
4.561899427e-15
4.511938922e-15
4.460477717e-15
4.409343322e-15
4.356983766e-15
4.304014246e-15
4.250686061e-15
4.196606268e-15
4.142347474e-15
4.087673146e-15
4.032899174e-15
3.978255527e-15
3.924085933e-15
3.869464735e-15
3.815354159e-15
3.761399231e-15
3.706427838e-15
3.652658758e-15
3.598762218e-15
3.545045167e-15
3.492383019e-15
3.439849583e-15
3.387165191e-15
3.334444861e-15
3.282638259e-15
3.231305117e-15
3.180850727e-15
3.131047159e-15
3.08125258e-15
3.031561806e-15
2.982522097e-15
2.933985603e-15
2.885437329e-15
2.837502385e-15
2.78932417e-15
2.742421691e-15
2.695574421e-15
2.649147811e-15
2.602918114e-15
2.557169521e-15
2.512480476e-15
2.468727197e-15
2.42517287e-15
2.381984077e-15
2.339341921e-15
2.297867538e-15
2.256703404e-15
2.21594932e-15
2.17522883e-15
2.135511296e-15
2.097247535e-15
2.059153311e-15
2.022550085e-15
1.985688142e-15
1.948680518e-15
1.911347153e-15
1.875329493e-15
1.840376288e-15
1.806279372e-15
1.771986775e-15
1.738077195e-15
1.704976034e-15
1.672259074e-15
1.640219886e-15
1.60831468e-15
1.576338483e-15
1.54601859e-15
1.516237286e-15
1.486641398e-15
1.457117339e-15
1.427743842e-15
1.398845494e-15
1.370800438e-15
1.343900519e-15
1.317008043e-15
1.291157853e-15
1.266220504e-15
1.241344071e-15
1.216668466e-15
1.191588887e-15
1.167162494e-15
1.143753275e-15
1.120436419e-15
1.097885432e-15
1.075307696e-15
1.053169479e-15
1.031161951e-15
1.009601817e-15
9.885124771e-16
9.684996243e-16
9.490225709e-16
9.296407246e-16
9.104467857e-16
8.914169968e-16
8.729373879e-16
8.547524539e-16
8.362363186e-16
8.183667363e-16
8.006913991e-16
7.834904466e-16
7.673268371e-16
7.510542735e-16
7.347675488e-16
7.188164528e-16
7.03292027e-16
6.881841764e-16
6.737848102e-16
6.591393178e-16
6.450923822e-16
6.309816441e-16
6.171529688e-16
6.035836496e-16
5.902447906e-16
5.776375994e-16
5.648946634e-16
5.526740814e-16
5.404730934e-16
5.285586008e-16
5.164646881e-16
5.05168026e-16
4.939751967e-16
4.833374771e-16
4.727178821e-16
4.624765647e-16
4.51572216e-16
4.413837128e-16
4.315467275e-16
4.220598173e-16
4.130513266e-16
4.040426207e-16
3.951622507e-16
3.863687231e-16
3.777984223e-16
3.694201661e-16
3.608885807e-16
3.522277195e-16
3.439095538e-16
3.359550048e-16
3.281199597e-16
3.204289659e-16
3.13009864e-16
3.058400928e-16
2.984947835e-16
2.914779608e-16
2.851170344e-16
2.787735806e-16
2.721163715e-16
2.656135897e-16
2.593397104e-16
2.533826156e-16
2.476319996e-16
2.421705569e-16
2.363197572e-16
2.307025401e-16
2.255647136e-16
2.204196655e-16
2.155512524e-16
2.111283337e-16
2.065598046e-16
2.02131888e-16
1.980582344e-16
1.936549487e-16
1.897459074e-16
1.858209952e-16
1.817008336e-16
1.778303849e-16
1.736624759e-16
1.69599569e-16
1.658137902e-16
1.619094007e-16
1.575952771e-16
1.525871374e-16
1.467529329e-16
8.920208145e-17
8.656662473e-17
6.073470682e-17
4.464951152e-17
3.250752353e-17
2.155566091e-17
1.649305189e-17
9.984332504e-18
6.926223976e-18
6.319899083e-18
4.763876539e-18
4.189929566e-18
4.235857079e-18
3.42681853e-18
3.556332786e-18
2.86829665e-18
1.961905099e-18
1.878983912e-18
1.746899143e-18
1.346909758e-18
1.136943223e-18
4.066065369e-19
1.742800603e-19
-2.59545355e-19
-6.535180045e-19
-1.090697408e-18
-1.594478447e-18
-2.044022843e-18
-2.491282147e-18
-3.021883847e-18
-3.460785901e-18
-3.951526147e-18
-4.385245052e-18
-4.818083972e-18
-5.294818341e-18
-5.816431748e-18
-6.218804094e-18
-6.666880574e-18
-7.075070494e-18
-7.473171319e-18
-7.856185462e-18
-8.229907629e-18
-8.561608437e-18
-8.847561211e-18
-9.115925846e-18
-9.365190184e-18
-9.624841309e-18
-9.881049873e-18
-9.940984092e-18
-1.007424965e-17
-1.011312021e-17
-1.01938259e-17
-1.013782697e-17
-1.021064867e-17
-1.00498576e-17
-1.002996469e-17
-9.839328739e-18
-9.642062788e-18
-9.48290093e-18
-9.223196037e-18
-8.990967358e-18
-8.705198052e-18
-8.415076772e-18
-8.119708997e-18
-7.785260932e-18
-7.447360901e-18
-7.103593631e-18
-6.752642166e-18
-6.400738141e-18
-6.048982765e-18
-5.692048808e-18
-5.337060031e-18
-4.989521905e-18
-4.665317405e-18
-4.325299196e-18
-3.993736335e-18
-3.681008531e-18
-3.377177304e-18
-3.090914492e-18
-2.810612089e-18
-2.550114239e-18
-2.302871424e-18
-2.061289201e-18
-1.827695806e-18
-1.6254269e-18
-1.428118605e-18
-1.247117958e-18
-1.09114527e-18
-9.383519548e-19
-7.974693889e-19
-6.717350602e-19
-5.546760758e-19
-4.539171287e-19
-3.630340832e-19
-2.837385757e-19
-2.140076168e-19
-1.54007877e-19
-1.02847043e-19
-5.890969119e-20
-2.26998451e-20
7.232455221e-21
3.110826927e-20
5.020224484e-20
6.430814973e-20
7.513007268e-20
8.204103424e-20
8.597144924e-20
8.825809737e-20
8.903196322e-20
8.73259849e-20
8.53460741e-20
8.239430503e-20
7.935568629e-20
7.569192153e-20
7.22490294e-20
6.890588403e-20
6.554447296e-20
6.245297376e-20
6.015963669e-20
5.792919384e-20
5.625429169e-20
5.487029331e-20
5.387611079e-20
5.312456368e-20
5.255106255e-20
5.235351078e-20
5.248597485e-20
5.249581784e-20
5.298723847e-20
5.293566722e-20
5.261681112e-20
5.278236573e-20
5.248060677e-20
5.267533638e-20
5.228072122e-20
5.137377244e-20
5.089188356e-20
5.006951286e-20
4.882619358e-20
4.70627878e-20
4.600977034e-20
4.496257357e-20
4.267130078e-20
4.188656385e-20
4.031373096e-20
3.810177184e-20
3.644337818e-20
3.32887146e-20
3.168173436e-20
2.945397593e-20
2.718070237e-20
2.479064454e-20
2.356114115e-20
2.046716834e-20
1.905725244e-20
1.595856872e-20
1.389087375e-20
1.310521421e-20
1.032061045e-20
8.163788979e-21
5.526378452e-21
4.454774375e-21
2.822808481e-21
4.866440427e-22
-1.220580583e-21
-3.74925238e-21
-3.482209718e-21
-5.933540391e-21
-8.476523302e-21
-9.274196954e-21
-1.065741711e-20
-1.196712244e-20
-1.307633678e-20
-1.525346574e-20
-1.549400123e-20
-1.763517048e-20
-1.946734585e-20
-1.959580499e-20
-2.06603821e-20
-2.185328282e-20
-2.25230837e-20
-2.307022352e-20
-2.406219692e-20
-2.405967046e-20
-2.540096145e-20
-2.567654318e-20
-2.698764771e-20
-2.684232862e-20
-2.712259993e-20
-2.752402665e-20
-2.769730441e-20
-2.781611609e-20
-2.763886482e-20
-2.883066934e-20
-2.810496612e-20
-2.880319805e-20
-2.904404583e-20
-2.939613476e-20
-2.957786771e-20
-2.955452131e-20
-2.987844039e-20
-3.040080939e-20
-2.991471248e-20
-3.10010484e-20
-3.100277538e-20
-3.134858014e-20
-3.188016733e-20
-3.219177835e-20
-3.250403445e-20
-3.284093405e-20
-3.341578036e-20
-3.343640168e-20
-3.36228842e-20
-3.388615789e-20
-3.425035532e-20
-3.468136171e-20
-3.473569564e-20
-3.497536999e-20
-3.508189812e-20
-3.498584689e-20
-3.486468088e-20
-3.468188e-20
-3.43004408e-20
-3.384404171e-20
-3.33410356e-20
-3.25858124e-20
-3.182204148e-20
-3.088068504e-20
-2.977737219e-20
-2.850104059e-20
-2.701564545e-20
-2.534558178e-20
-2.380398247e-20
-2.202828351e-20
-1.96047404e-20
-1.822035587e-20
-1.566994766e-20
-1.272820968e-20
-1.104429855e-20
-8.59397255e-21
-5.629811835e-21
-3.620933755e-21
-3.52658759e-22
2.322824515e-21
4.181328114e-21
6.89536231e-21
1.034649842e-20
1.191203478e-20
1.514133947e-20
1.713902469e-20
)
;

boundaryField
{
    inlet
    {
        type            calculated;
        value           uniform 0;
    }
    outlet
    {
        type            calculated;
        value           uniform 1.784315996e-20;
    }
    wall
    {
        type            empty;
    }
}


// ************************************************************************* //
