/*--------------------------------*- C++ -*----------------------------------*\
  =========                 |
  \\      /  F ield         | OpenFOAM: The Open Source CFD Toolbox
   \\    /   O peration     | Website:  https://openfoam.org
    \\  /    A nd           | Version:  7
     \\/     M anipulation  |
\*---------------------------------------------------------------------------*/
FoamFile
{
    version     2.0;
    format      ascii;
    class       volScalarField;
    location    "0.000558243009";
    object      ddt0(rho,C2H2);
}
// * * * * * * * * * * * * * * * * * * * * * * * * * * * * * * * * * * * * * //

dimensions      [1 -3 -1 0 0 0 0];

internalField   nonuniform List<scalar> 
1500
(
-2.291005697e-07
-7.123197577e-07
-1.09958241e-06
-1.145118839e-06
-9.043839351e-07
-5.769371359e-07
-3.092848173e-07
-1.432926834e-07
-5.885712289e-08
-2.243653466e-08
-9.071494035e-09
-5.18012396e-09
-4.659401162e-09
-5.150863787e-09
-5.832741345e-09
-6.444409947e-09
-6.907405267e-09
-7.199161206e-09
-7.315033923e-09
-7.257286783e-09
-7.032073274e-09
-6.648496787e-09
-6.11815048e-09
-5.45475949e-09
-4.673841649e-09
-3.792384167e-09
-2.828549302e-09
-1.801420606e-09
-7.307914372e-10
3.630135579e-10
1.459302528e-09
2.537190493e-09
3.575808842e-09
4.554571895e-09
5.453512247e-09
6.253687153e-09
6.937647115e-09
7.489940054e-09
7.897624969e-09
8.150756003e-09
8.242797712e-09
8.170935686e-09
7.936253348e-09
7.543755785e-09
7.002234154e-09
6.323976504e-09
5.524342713e-09
4.621231289e-09
3.634471658e-09
2.585178575e-09
1.495105048e-09
3.860249389e-10
-7.208290549e-10
-1.805254475e-09
-2.848485426e-09
-3.833514276e-09
-4.745331887e-09
-5.571093998e-09
-6.30022296e-09
-6.924454172e-09
-7.43783488e-09
-7.836680674e-09
-8.119493407e-09
-8.28684095e-09
-8.341199735e-09
-8.286759698e-09
-8.129193983e-09
-7.875397483e-09
-7.533201686e-09
-7.111076653e-09
-6.617833414e-09
-6.062341817e-09
-5.453279126e-09
-4.79892324e-09
-4.107001983e-09
-3.384604771e-09
-2.63815924e-09
-1.873469088e-09
-1.095805017e-09
-3.100368011e-10
4.792090556e-10
1.267381937e-09
2.049846518e-09
2.821743586e-09
3.577884028e-09
4.312684738e-09
5.020151058e-09
5.693907102e-09
6.327271583e-09
6.91337386e-09
7.445302767e-09
7.916279259e-09
8.319842881e-09
8.650041799e-09
8.901616671e-09
9.070168519e-09
9.152303005e-09
9.145743666e-09
9.049409702e-09
8.86345481e-09
8.589266472e-09
8.229427202e-09
7.787641283e-09
7.268632629e-09
6.678020944e-09
6.022184071e-09
5.308115072e-09
4.543281759e-09
3.735495248e-09
2.892792745e-09
2.023337191e-09
1.135334255e-09
2.369653813e-10
-6.636669678e-10
-1.558585983e-09
-2.439984521e-09
-3.300270956e-09
-4.132120975e-09
-4.928537475e-09
-5.682919141e-09
-6.389136179e-09
-7.041610029e-09
-7.635392854e-09
-8.166241478e-09
-8.630680514e-09
-9.026050168e-09
-9.350535371e-09
-9.603174372e-09
-9.783846833e-09
-9.893243238e-09
-9.932818769e-09
-9.904736135e-09
-9.811802071e-09
-9.657402255e-09
-9.445438495e-09
-9.18027104e-09
-8.866666791e-09
-8.509753185e-09
-8.114974805e-09
-7.688049506e-09
-7.234918892e-09
-6.761688256e-09
-6.274551503e-09
-5.779696905e-09
-5.283192561e-09
-4.790851447e-09
-4.308079243e-09
-3.839710402e-09
-3.389840902e-09
-2.961667416e-09
-2.557344444e-09
-2.177871404e-09
-1.82302126e-09
-1.491319818e-09
-1.180083969e-09
-8.855215599e-10
-6.028941161e-10
-3.267364072e-10
-5.112546163e-11
2.30015305e-10
5.225920667e-10
8.320162336e-10
1.162899287e-09
1.518786809e-09
1.901949267e-09
2.31324541e-09
2.752067602e-09
3.21637481e-09
3.702811782e-09
4.20690658e-09
4.72333297e-09
5.246218198e-09
5.769472797e-09
6.287117568e-09
6.793581887e-09
7.283949463e-09
7.754133545e-09
8.200967773e-09
8.622208178e-09
9.01644896e-09
9.382963957e-09
9.721491941e-09
1.003198962e-08
1.031437942e-08
1.05683187e-08
1.079301474e-08
1.098710502e-08
1.114861364e-08
1.127498906e-08
1.136321786e-08
1.141000399e-08
1.14119963e-08
1.136604458e-08
1.126946347e-08
1.112028521e-08
1.091748395e-08
1.066115888e-08
1.035266614e-08
9.994692214e-09
9.591261132e-09
9.14767149e-09
8.670354554e-09
8.166648421e-09
7.644484714e-09
7.11198726e-09
6.576995466e-09
6.046532611e-09
5.526259869e-09
5.019969565e-09
4.529187758e-09
4.05296452e-09
3.587929343e-09
3.128675221e-09
2.668508848e-09
2.200559554e-09
1.71918438e-09
1.221546279e-09
7.091792499e-10
1.893008109e-10
-3.243959464e-10
-8.11741684e-10
-1.247112489e-09
-1.601624812e-09
-1.846528979e-09
-1.957667027e-09
-1.920678604e-09
-1.736451633e-09
-1.42614878e-09
-1.035022536e-09
-6.341842107e-10
-3.19541159e-10
-2.072719912e-10
-4.254840171e-10
-1.102068301e-09
-2.349229629e-09
-4.245671668e-09
-6.817919136e-09
-1.002271004e-08
-1.373273308e-08
-1.772819656e-08
-2.169679278e-08
-2.524466686e-08
-2.792105458e-08
-2.925959833e-08
-2.883856976e-08
-2.636132072e-08
-2.174289024e-08
-1.517994497e-08
-7.066839947e-09
2.355452698e-09
8.157560254e-09
8.988029698e-09
9.556278956e-09
1.005730084e-08
1.053856169e-08
1.100997302e-08
1.147094673e-08
1.191844271e-08
1.234868045e-08
1.275839603e-08
1.314499814e-08
1.350638603e-08
1.384081246e-08
1.414655828e-08
1.442190113e-08
1.466505577e-08
1.487406654e-08
1.504686748e-08
1.518126749e-08
1.527498135e-08
1.532559115e-08
1.533052562e-08
1.528715331e-08
1.519267933e-08
1.504423498e-08
1.48386956e-08
1.45729124e-08
1.424350892e-08
1.38470245e-08
1.337973075e-08
1.283782609e-08
1.221724952e-08
1.151379762e-08
1.072306573e-08
9.840385602e-09
8.860941814e-09
7.779670736e-09
6.591234577e-09
5.290094554e-09
3.870446345e-09
2.326196119e-09
6.509776063e-10
-1.161876134e-09
-3.119295691e-09
-5.228583237e-09
-7.497354122e-09
-9.933529366e-09
-1.254542985e-08
-1.53417509e-08
-1.833152403e-08
-2.152423243e-08
-2.492973507e-08
-2.855836266e-08
-3.242083503e-08
-3.652836959e-08
-4.089265606e-08
-4.552588345e-08
-5.044074702e-08
-5.565045411e-08
-6.116876171e-08
-6.70100275e-08
-7.318912747e-08
-7.972159909e-08
-8.662354131e-08
-9.391173934e-08
-1.016035686e-07
-1.097171403e-07
-1.182712348e-07
-1.272853129e-07
-1.367796261e-07
-1.467751162e-07
-1.572935175e-07
-1.68357321e-07
-1.799898899e-07
-1.922153147e-07
-2.050586266e-07
-2.18545619e-07
-2.327030263e-07
-2.475584361e-07
-2.63140381e-07
-2.794782928e-07
-2.966025475e-07
-3.145445198e-07
-3.333364514e-07
-3.53011707e-07
-3.736045328e-07
-3.951502766e-07
-4.176852565e-07
-4.412468094e-07
-4.658733719e-07
-4.916044035e-07
-5.184804146e-07
-5.465430103e-07
-5.758348445e-07
-6.063996545e-07
-6.382822824e-07
-6.715285974e-07
-7.061855995e-07
-7.423013415e-07
-7.799249669e-07
-8.191066938e-07
-8.598977651e-07
-9.023505625e-07
-9.465184125e-07
-9.92455769e-07
-1.040218076e-06
-1.089861736e-06
-1.141444209e-06
-1.195023901e-06
-1.250660156e-06
-1.308413258e-06
-1.368344391e-06
-1.430515577e-06
-1.494989729e-06
-1.561830532e-06
-1.631102478e-06
-1.702870739e-06
-1.777201306e-06
-1.854160697e-06
-1.93381613e-06
-2.016235365e-06
-2.101486711e-06
-2.189638944e-06
-2.280761259e-06
-2.374923275e-06
-2.472194839e-06
-2.572646178e-06
-2.676347627e-06
-2.783369755e-06
-2.893783157e-06
-3.007658471e-06
-3.125066316e-06
-3.246077188e-06
-3.370761469e-06
-3.499189235e-06
-3.631430262e-06
-3.767554038e-06
-3.907629535e-06
-4.051725246e-06
-4.199909145e-06
-4.352248459e-06
-4.508809774e-06
-4.66965886e-06
-4.834860714e-06
-5.004479315e-06
-5.178577772e-06
-5.357218038e-06
-5.540461057e-06
-5.728366604e-06
-5.920993178e-06
-6.118398055e-06
-6.320637122e-06
-6.527764978e-06
-6.739834703e-06
-6.956897985e-06
-7.179004943e-06
-7.406204171e-06
-7.638542737e-06
-7.876066027e-06
-8.118817861e-06
-8.366840421e-06
-8.620174198e-06
-8.878858132e-06
-9.142929364e-06
-9.412423509e-06
-9.687374592e-06
-9.967814891e-06
-1.025377526e-05
-1.054528493e-05
-1.08423717e-05
-1.114506198e-05
-1.145338067e-05
-1.176735158e-05
-1.208699719e-05
-1.24123389e-05
-1.274339711e-05
-1.308019137e-05
-1.34227404e-05
-1.377106233e-05
-1.412517487e-05
-1.44850953e-05
-1.485084084e-05
-1.522242876e-05
-1.559987655e-05
-1.598320209e-05
-1.63724241e-05
-1.676756205e-05
-1.716863672e-05
-1.757567023e-05
-1.798868646e-05
-1.840771138e-05
-1.883277315e-05
-1.926390273e-05
-1.970113395e-05
-2.014450412e-05
-2.059405427e-05
-2.104982949e-05
-2.151187947e-05
-2.198025888e-05
-2.245502779e-05
-2.293625208e-05
-2.342400411e-05
-2.391836288e-05
-2.441941511e-05
-2.4927255e-05
-2.544198544e-05
-2.59637184e-05
-2.64925753e-05
-2.702868783e-05
-2.75721987e-05
-2.81232618e-05
-2.868204365e-05
-2.924872316e-05
-2.982349325e-05
-3.040656084e-05
-3.099814802e-05
-3.159849293e-05
-3.220785015e-05
-3.282649178e-05
-3.34547082e-05
-3.409280911e-05
-3.474112427e-05
-3.540000431e-05
-3.606982191e-05
-3.675097266e-05
-3.744387603e-05
-3.814897631e-05
-3.886674387e-05
-3.959767617e-05
-4.034229843e-05
-4.110116547e-05
-4.187486249e-05
-4.266400604e-05
-4.346924576e-05
-4.429126497e-05
-4.513078256e-05
-4.598855392e-05
-4.686537238e-05
-4.776207074e-05
-4.867952238e-05
-4.961864279e-05
-5.058039127e-05
-5.15657723e-05
-5.257583695e-05
-5.361168467e-05
-5.467446514e-05
-5.57653794e-05
-5.688568179e-05
-5.803668251e-05
-5.921974794e-05
-6.043630387e-05
-6.168783717e-05
-6.297589727e-05
-6.430209861e-05
-6.5668123e-05
-6.707572152e-05
-6.8526716e-05
-7.002300232e-05
-7.156655096e-05
-7.315940815e-05
-7.480369326e-05
-7.650156747e-05
-7.825576247e-05
-8.005787308e-05
-8.192176151e-05
-8.385805782e-05
-8.588304801e-05
-8.797132977e-05
-9.0125195e-05
-9.234760538e-05
-9.464164467e-05
-9.701055663e-05
-9.945773453e-05
-0.0001019867345
-0.0001046012838
-0.0001073052969
-0.0001101027896
-0.0001130007546
-0.0001160484537
-0.0001192092531
-0.0001224868856
-0.0001258866521
-0.000129402284
-0.0001330408349
-0.0001368157905
-0.0001407328515
-0.0001447976708
-0.0001490162397
-0.0001533948385
-0.0001579400334
-0.0001626586946
-0.0001675580149
-0.0001726455315
-0.000177929158
-0.0001834172085
-0.0001891184362
-0.0001950420717
-0.000201197864
-0.0002075961313
-0.0002142478174
-0.0002211645516
-0.0002283587237
-0.0002358435612
-0.000243633226
-0.0002517429149
-0.0002601889834
-0.0002689890801
-0.0002781623031
-0.0002877293804
-0.0002977128709
-0.0003081374009
-0.0003190299293
-0.0003304200549
-0.0003423403646
-0.0003548268395
-0.0003679193104
-0.0003816619894
-0.0003961040737
-0.0004113004393
-0.0004273124417
-0.0004442088228
-0.0004620667672
-0.0004809731006
-0.0005010256757
-0.0005223349506
-0.0005450258168
-0.0005692396808
-0.0005951368649
-0.0006228993538
-0.0006527339551
-0.0006848759205
-0.0007195931038
-0.0007571907297
-0.0007980168668
-0.0008424687102
-0.0008909997804
-0.0009441281892
-0.001002446117
-0.001066630676
-0.001137456386
-0.001215809442
-0.001302704116
-0.001399301515
-0.00150693111
-0.001627115388
-0.0017615981
-0.001912376623
-0.002081739021
-0.002272306485
-0.00248708193
-0.002729505612
-0.003003518789
-0.003313636571
-0.003665031243
-0.00406362758
-0.004516211848
-0.005030556393
-0.005615562067
-0.006281420957
-0.007039802299
-0.007904064715
-0.00888949869
-0.01001360312
-0.01129640099
-0.01276079931
-0.01443299961
-0.01634296556
-0.01852495588
-0.02101813104
-0.02386724363
-0.02712342376
-0.03084507188
-0.0350988729
-0.03996094778
-0.04551815946
-0.05186959378
-0.05912823543
-0.06742286514
-0.07690020188
-0.08772732217
-0.1000943851
-0.1142176985
-0.1303431638
-0.1487501363
-0.1697557417
-0.1937196928
-0.2210496439
-0.2522071257
-0.2877140977
-0.3281601456
-0.3742103497
-0.426613824
-0.4862129201
-0.5539530523
-0.630893059
-0.7182159802
-0.8172400642
-0.9294297098
-1.056405996
-1.199956274
-1.362042182
-1.544805227
-1.750568875
-1.981835824
-2.241278886
-2.531723505
-2.856119684
-3.217502391
-3.618928228
-4.063407569
-4.553800361
-5.092693022
-5.682245957
-6.324007485
-7.01871188
-7.766019357
-8.564256475
-9.410124578
-10.29840231
-11.22165485
-12.16997013
-13.13074582
-14.08855482
-15.02511847
-15.91941488
-16.74794582
-17.48517814
-18.10415642
-18.57728312
-18.87722361
-18.97789296
-18.85545943
-18.48928334
-17.86275936
-16.9639103
-15.78579584
-14.32664637
-12.58972201
-10.5830947
-8.319048796
-5.813736851
-3.08668135
-0.1605495355
2.938847402
6.182403238
9.538549895
12.97190594
16.6719228
20.35457256
25.39157637
29.62652812
32.69669605
31.55737119
37.11645175
41.69127832
45.790029
49.78195168
53.89451355
58.4049821
63.05667242
68.27263188
74.62451264
78.47462406
86.43617397
80.01823336
85.64346998
89.01883351
91.04364306
79.59570516
72.71537999
59.67977306
40.67193837
7.372545876
-27.33658011
-68.87455496
-114.2221759
-159.3958931
-200.1640562
-232.2669883
-233.632539
-243.1880395
-235.3282725
-238.3879337
-243.8109941
-252.7010871
-265.8243238
-282.9944051
-294.485542
-282.604169
-269.9936156
-255.5052893
-236.3369815
-218.4603081
-204.5361244
-194.4495644
-186.4258104
-178.4956877
-155.5279428
-134.5351784
-121.059319
-106.7758999
-92.8472939
-79.96889523
-68.45409949
-58.37459079
-49.55373868
-42.06910578
-35.66800077
-30.21320165
-25.57663066
-21.64287242
-18.31004426
-15.48931819
-13.103877
-11.08767556
-9.384216947
-7.945245217
-6.729742901
-5.702916955
-4.835308523
-4.102014364
-3.482009031
-2.957559054
-2.513718065
-2.137894788
-1.819484709
-1.549557146
-1.320590171
-1.126247008
-0.9611874555
-0.8209092267
-0.7016146103
-0.6000984956
-0.5136543783
-0.4399954711
-0.3771884848
-0.3235980281
-0.2778399044
-0.2387418591
-0.2053105687
-0.1767038615
-0.1522073238
-0.1312145869
-0.1132107038
-0.09775812383
-0.08448485075
-0.07307444028
-0.06325754586
-0.05480477035
-0.04752061883
-0.04123838098
-0.03581579824
-0.03113139412
-0.02708136479
-0.02357694352
-0.02054216573
-0.01791197303
-0.01563060403
-0.01365022805
-0.01192978422
-0.01043399486
-0.009132526227
-0.007999274373
-0.007011756948
-0.006150594968
-0.00539907086
-0.004742751329
-0.004169165263
-0.003667528451
-0.003228508112
-0.002844021307
-0.002507062245
-0.002211554177
-0.001952222314
-0.001724484662
-0.001524358186
-0.001348378081
-0.001193528262
-0.001057181463
-0.0009370475787
-0.0008311290804
-0.0007376825005
-0.0006551851442
-0.0005823062907
-0.0005178822608
-0.0004608948193
-0.0004104524494
-0.0003657741092
-0.0003261751284
-0.0002910549582
-0.0002598865217
-0.0002322069376
-0.0002076095128
-0.0001857366361
-0.0001662737233
-0.0001489438536
-0.0001335031263
-0.0001197365935
-0.0001074547117
-9.649023957e-05
-8.669552611e-05
-7.79401374e-05
-7.010877965e-05
-6.309948021e-05
-5.682199341e-05
-5.119640292e-05
-4.615189586e-05
-4.162568684e-05
-3.756207327e-05
-3.391160525e-05
-3.063035604e-05
-2.767928031e-05
-2.502364969e-05
-2.263255565e-05
-2.047847189e-05
-1.853686818e-05
-1.67858704e-05
-1.520596032e-05
-1.377971066e-05
-1.249155113e-05
-1.132756155e-05
-1.027528911e-05
-9.323586623e-06
-8.462469268e-06
-7.682987852e-06
-6.977116369e-06
-6.337652318e-06
-5.75812844e-06
-5.232733919e-06
-4.756244862e-06
-4.323962175e-06
-3.931656468e-06
-3.575518941e-06
-3.25211772e-06
-2.958358845e-06
-2.691451347e-06
-2.448876604e-06
-2.228360501e-06
-2.027848559e-06
-1.845483939e-06
-1.679587599e-06
-1.528640659e-06
-1.391268405e-06
-1.266226256e-06
-1.152386867e-06
-1.048728684e-06
-9.543257212e-07
-8.683382528e-07
-7.900045552e-07
-7.186334233e-07
-6.535973686e-07
-5.943266989e-07
-5.403039471e-07
-4.910589666e-07
-4.461645237e-07
-4.0523221e-07
-3.679089353e-07
-3.338735054e-07
-3.028338266e-07
-2.745240778e-07
-2.487023659e-07
-2.251485394e-07
-2.036621912e-07
-1.840607851e-07
-1.661781485e-07
-1.498629739e-07
-1.34977359e-07
-1.213956667e-07
-1.090034564e-07
-9.769644026e-08
-8.737955035e-08
-7.796614512e-08
-6.937724087e-08
-6.154086283e-08
-5.439135348e-08
-4.786885239e-08
-4.191878255e-08
-3.64913725e-08
-3.154126414e-08
-2.702702697e-08
-2.291089731e-08
-1.915841294e-08
-1.573815191e-08
-1.262142618e-08
-9.782086189e-09
-7.196264969e-09
-4.842198471e-09
-2.699996161e-09
-7.515150658e-10
1.019813591e-09
2.629110573e-09
4.090137689e-09
5.415525691e-09
6.616765626e-09
7.704366921e-09
8.68791244e-09
9.576160798e-09
1.037712431e-08
1.109810621e-08
1.17457936e-08
1.232629492e-08
1.284518094e-08
1.330756059e-08
1.371810351e-08
1.408108777e-08
1.440040792e-08
1.467964189e-08
1.492205275e-08
1.513064617e-08
1.530816322e-08
1.545711478e-08
1.557980764e-08
1.567836424e-08
1.575470238e-08
1.581061357e-08
1.584773954e-08
1.586757522e-08
1.587150012e-08
1.586078716e-08
1.583661501e-08
1.580006083e-08
1.575210672e-08
1.569366521e-08
1.562558228e-08
1.554862166e-08
1.546351792e-08
1.537093033e-08
1.527147998e-08
1.516573628e-08
1.50542213e-08
1.493743286e-08
1.481581083e-08
1.468978878e-08
1.455975848e-08
1.442609102e-08
1.428912107e-08
1.414915224e-08
1.400649691e-08
1.386144193e-08
1.371422573e-08
1.356509934e-08
1.3414284e-08
1.326199505e-08
1.310842481e-08
1.295375613e-08
1.279816173e-08
1.264180885e-08
1.248485138e-08
1.232743219e-08
1.2169684e-08
1.201173849e-08
1.185372663e-08
1.169574364e-08
1.153789733e-08
1.138029289e-08
1.122301137e-08
1.106615191e-08
1.090979769e-08
1.07540226e-08
1.059889502e-08
1.044448395e-08
1.029085592e-08
1.013807425e-08
9.986191217e-09
9.835267425e-09
9.685346532e-09
9.536476753e-09
9.388700464e-09
9.242062928e-09
9.096596886e-09
8.95234056e-09
8.809323921e-09
8.667578328e-09
8.527132807e-09
8.388010278e-09
8.250242301e-09
8.113844461e-09
7.978836662e-09
7.845240423e-09
7.713065521e-09
7.582334816e-09
7.453058084e-09
7.325244321e-09
7.198903989e-09
7.074048129e-09
6.95068046e-09
6.828813997e-09
6.708451192e-09
6.589590389e-09
6.472237321e-09
6.356395259e-09
6.242063927e-09
6.129242153e-09
6.017936013e-09
5.908135435e-09
5.799840582e-09
5.693046622e-09
5.587751603e-09
5.483947857e-09
5.381629041e-09
5.280790472e-09
5.18142126e-09
5.083514612e-09
4.987068944e-09
4.892076051e-09
4.79851696e-09
4.706391464e-09
4.615685312e-09
4.526388007e-09
4.438490584e-09
4.351977124e-09
4.266836893e-09
4.183063605e-09
4.100639871e-09
4.019555109e-09
3.9398007e-09
3.861356787e-09
3.784214223e-09
3.708358638e-09
3.63378047e-09
3.560461518e-09
3.488390826e-09
3.417551404e-09
3.347929962e-09
3.279512102e-09
3.212283973e-09
3.146235188e-09
3.08135256e-09
3.017616358e-09
2.955014102e-09
2.893528821e-09
2.833146714e-09
2.773854961e-09
2.715637051e-09
2.65847876e-09
2.602368034e-09
2.547289238e-09
2.493230916e-09
2.440176419e-09
2.388111083e-09
2.33702258e-09
2.286894247e-09
2.237712282e-09
2.189462603e-09
2.142131437e-09
2.095705202e-09
2.050170531e-09
2.005513791e-09
1.961725639e-09
1.918786882e-09
1.876680255e-09
1.835397213e-09
1.794924108e-09
1.755249117e-09
1.716360781e-09
1.678245801e-09
1.640887627e-09
1.604273371e-09
1.568393537e-09
1.533235667e-09
1.498788541e-09
1.465041255e-09
1.431978161e-09
1.399589079e-09
1.367860019e-09
1.33678187e-09
1.306343807e-09
1.276533878e-09
1.247341944e-09
1.218754779e-09
1.190763787e-09
1.163357313e-09
1.136523836e-09
1.110255036e-09
1.084540571e-09
1.059368222e-09
1.034728674e-09
1.010611479e-09
9.870070683e-10
9.639073579e-10
9.413014448e-10
9.191807921e-10
8.975353963e-10
8.763555717e-10
8.556348402e-10
8.3536238e-10
8.155317075e-10
7.961329347e-10
7.771586798e-10
7.585993642e-10
7.40448645e-10
7.226983173e-10
7.053377595e-10
6.883614861e-10
6.717616393e-10
6.555297915e-10
6.396589978e-10
6.241439214e-10
6.089750899e-10
5.941450898e-10
5.796493192e-10
5.654787826e-10
5.516295707e-10
5.380945294e-10
5.248682095e-10
5.119413559e-10
4.99308678e-10
4.869640933e-10
4.749020335e-10
4.631155709e-10
4.515991533e-10
4.403476538e-10
4.293565303e-10
4.186195983e-10
4.081318134e-10
3.978873599e-10
3.878806409e-10
3.781068381e-10
3.685611041e-10
3.592411777e-10
3.501403517e-10
3.412535303e-10
3.325745346e-10
3.240989976e-10
3.158237493e-10
3.077460336e-10
2.998608711e-10
2.921639222e-10
2.846490485e-10
2.773130317e-10
2.701537148e-10
2.631660061e-10
2.563449745e-10
2.496879326e-10
2.431921915e-10
2.368535039e-10
2.306687381e-10
2.246349863e-10
2.187481821e-10
2.130056321e-10
2.07403714e-10
2.01937357e-10
1.966062621e-10
1.914057869e-10
1.863330106e-10
1.813849125e-10
1.765596965e-10
1.718552427e-10
1.67266545e-10
1.62792507e-10
1.584303267e-10
1.541775179e-10
1.500311455e-10
1.459893669e-10
1.420511637e-10
1.382122736e-10
1.344707248e-10
1.308247414e-10
1.272717975e-10
1.238100145e-10
1.204368895e-10
1.171502957e-10
1.139487986e-10
1.108304518e-10
1.077930639e-10
1.048356124e-10
1.019568065e-10
9.915397688e-11
9.642511071e-11
9.376833246e-11
9.118166006e-11
8.866371491e-11
8.621377137e-11
8.383099498e-11
8.151196656e-11
7.925735785e-11
7.706499496e-11
7.49334924e-11
7.286195273e-11
7.084830808e-11
6.889185518e-11
6.6991974e-11
6.514773621e-11
6.335782389e-11
6.16213389e-11
5.993848032e-11
5.830822583e-11
5.673074119e-11
5.520459587e-11
5.372781419e-11
5.229892688e-11
5.091382628e-11
4.956589245e-11
4.824671391e-11
4.693821311e-11
4.561914635e-11
4.424971868e-11
4.277788206e-11
4.1128675e-11
3.921083536e-11
2.025426291e-11
2.196454456e-11
1.430390436e-11
9.214074756e-12
5.908694283e-12
3.750455652e-12
2.355700658e-12
1.455950047e-12
8.781632616e-13
5.178167484e-13
3.00814236e-13
1.62731258e-13
8.414862835e-14
3.850985818e-14
1.495121399e-14
2.031922281e-15
-4.576850778e-15
-5.959920297e-15
-6.316266801e-15
-5.484365806e-15
-5.268551999e-15
-4.01105201e-15
-3.795339641e-15
-2.129690493e-15
-2.138121718e-15
-1.556264597e-15
-1.361226528e-15
-1.296259093e-15
-1.228487289e-15
-1.229144532e-15
-1.326935332e-15
-1.402730023e-15
-1.559957507e-15
-1.710661448e-15
-1.861034098e-15
-2.018414333e-15
-2.266249174e-15
-2.465986161e-15
-2.673353672e-15
-2.876324954e-15
-3.084205292e-15
-3.293220327e-15
-3.498947643e-15
-3.709791541e-15
-3.878022207e-15
-4.141388204e-15
-4.375276518e-15
-4.332710405e-15
-4.738643748e-15
-4.794982868e-15
-4.894468734e-15
-5.006069856e-15
-5.080658436e-15
-5.254552035e-15
-5.280212505e-15
-5.231434252e-15
-5.168712265e-15
-5.128493752e-15
-5.087195469e-15
-5.1431743e-15
-5.061663511e-15
-4.964051744e-15
-4.735760982e-15
-4.643918762e-15
-4.43259265e-15
-4.26687182e-15
-4.053406341e-15
-3.855737772e-15
-3.646489312e-15
-3.439750723e-15
-3.223478164e-15
-3.004644055e-15
-2.776309797e-15
-2.57168515e-15
-2.362005739e-15
-2.177733619e-15
-1.974858935e-15
-1.809582878e-15
-1.617882778e-15
-1.496032317e-15
-1.31091422e-15
-1.215736342e-15
-1.05663767e-15
-9.165964719e-16
-8.001899689e-16
-7.146451662e-16
-6.225269268e-16
-5.390714732e-16
-4.666373158e-16
-3.981179545e-16
-3.249487908e-16
-2.888892468e-16
-2.347482254e-16
-1.997474007e-16
-1.590469119e-16
-1.288804215e-16
-1.032787927e-16
-7.984300528e-17
-5.939016838e-17
-4.241705979e-17
-2.930409451e-17
-1.702222629e-17
-7.357546671e-18
-3.535995687e-19
5.680442769e-18
9.754075898e-18
1.37777171e-17
1.613665414e-17
1.950689609e-17
1.842851099e-17
2.011451211e-17
2.022131846e-17
1.938159961e-17
1.898267625e-17
1.719271324e-17
1.669722561e-17
1.573791966e-17
1.489182125e-17
1.41552411e-17
1.264321358e-17
1.217941878e-17
1.069293498e-17
1.045224031e-17
9.540871518e-18
8.490473484e-18
8.541539659e-18
8.42610395e-18
8.219089557e-18
7.684283782e-18
7.978638931e-18
7.930978963e-18
8.217953783e-18
7.586866975e-18
8.118893305e-18
7.963462539e-18
8.276984831e-18
7.40283168e-18
7.869724423e-18
8.661024722e-18
7.085184019e-18
7.317091795e-18
6.655885093e-18
7.227179994e-18
6.639142993e-18
6.718939933e-18
5.595995231e-18
4.978172827e-18
6.167162823e-18
5.124216975e-18
4.508031582e-18
4.083043882e-18
2.304774759e-18
7.339195717e-19
1.273016646e-18
1.308308356e-18
1.441368158e-18
4.904982636e-20
6.409423263e-19
7.04787766e-19
-2.424710046e-19
5.896490889e-19
-2.157828066e-18
-8.397812624e-19
-1.103595393e-18
-2.494853195e-18
-3.60829383e-18
-5.059642972e-18
-4.839794396e-18
-4.546379315e-18
-3.786549642e-18
-5.380571731e-18
-5.688727694e-18
-6.501372959e-18
-6.817728431e-18
-7.350173345e-18
-6.588159914e-18
-6.365879817e-18
-6.877604568e-18
-6.798695324e-18
-6.999212912e-18
-7.540857345e-18
-7.293444277e-18
-7.176932779e-18
-7.690061938e-18
-7.3940631e-18
-8.233967138e-18
-8.287274042e-18
-8.99301078e-18
-7.557928352e-18
-8.688450144e-18
-7.852323096e-18
-7.335116611e-18
-8.463292478e-18
-7.137612815e-18
-7.170585546e-18
-7.319042369e-18
-7.213828579e-18
-7.149652561e-18
-6.635624932e-18
-7.937858111e-18
-7.890947064e-18
-7.135718062e-18
-6.383200817e-18
-6.569685829e-18
-6.229198422e-18
-6.136475756e-18
-6.054505506e-18
-5.325598398e-18
-5.33487399e-18
-5.506954748e-18
-4.834186569e-18
-4.294509779e-18
-4.971706441e-18
-5.036640278e-18
-4.633890493e-18
-3.519088351e-18
-4.620519709e-18
-3.924054424e-18
-4.197511551e-18
-3.827226334e-18
-3.644355976e-18
-3.622912739e-18
-3.82505385e-18
-3.455531242e-18
-3.525457716e-18
-3.288039665e-18
-3.051811667e-18
-3.035366919e-18
-2.431481365e-18
-2.684085314e-18
-2.38632675e-18
-2.161965048e-18
-1.735548643e-18
-1.762312756e-18
-2.02290371e-18
-4.783464062e-19
-7.725557475e-19
-1.196195387e-18
-7.586095692e-19
-3.940758461e-19
-3.803649157e-19
-1.330632445e-19
7.998699922e-20
6.736041657e-19
1.309423829e-18
5.215740116e-19
1.210177564e-18
3.220834753e-18
3.67063806e-18
2.905789545e-18
)
;

boundaryField
{
    inlet
    {
        type            calculated;
        value           uniform 0;
    }
    outlet
    {
        type            calculated;
        value           uniform 3.240133857e-18;
    }
    wall
    {
        type            empty;
    }
}


// ************************************************************************* //
