/*--------------------------------*- C++ -*----------------------------------*\
  =========                 |
  \\      /  F ield         | OpenFOAM: The Open Source CFD Toolbox
   \\    /   O peration     | Website:  https://openfoam.org
    \\  /    A nd           | Version:  7
     \\/     M anipulation  |
\*---------------------------------------------------------------------------*/
FoamFile
{
    version     2.0;
    format      ascii;
    class       volScalarField;
    location    "0.000558243009";
    object      ddt0(rho,CH2O);
}
// * * * * * * * * * * * * * * * * * * * * * * * * * * * * * * * * * * * * * //

dimensions      [1 -3 -1 0 0 0 0];

internalField   nonuniform List<scalar> 
1500
(
-9.180830004e-08
-2.824837878e-07
-4.322416475e-07
-4.458059642e-07
-3.485090543e-07
-2.199933702e-07
-1.166612334e-07
-5.34498042e-08
-2.171024981e-08
-8.201556431e-09
-3.323125409e-09
-1.943132303e-09
-1.789821063e-09
-1.997327274e-09
-2.267533398e-09
-2.506876872e-09
-2.687365368e-09
-2.800963521e-09
-2.84606533e-09
-2.823601633e-09
-2.73597831e-09
-2.586739812e-09
-2.38039724e-09
-2.122290757e-09
-1.818457926e-09
-1.475507994e-09
-1.100507372e-09
-7.008809303e-10
-2.843296986e-10
1.412385888e-10
5.677733198e-10
9.87148744e-10
1.391245481e-09
1.772054235e-09
2.121806252e-09
2.433131457e-09
2.699240745e-09
2.914122154e-09
3.072740713e-09
3.17122677e-09
3.20703757e-09
3.179078108e-09
3.087769911e-09
2.935060319e-09
2.724369718e-09
2.460479034e-09
2.149364365e-09
1.797989501e-09
1.414069507e-09
1.005819536e-09
5.817030582e-10
1.501916622e-10
-2.804536182e-10
-7.023725789e-10
-1.10826395e-09
-1.491510544e-09
-1.846272738e-09
-2.167553193e-09
-2.451236447e-09
-2.694106986e-09
-2.893848757e-09
-3.049028265e-09
-3.159062622e-09
-3.224172772e-09
-3.245322224e-09
-3.224141159e-09
-3.16283684e-09
-3.064091869e-09
-2.930953258e-09
-2.766716464e-09
-2.574809603e-09
-2.358683689e-09
-2.121714789e-09
-1.8671236e-09
-1.597916801e-09
-1.316852677e-09
-1.026432038e-09
-7.289129372e-10
-4.263460567e-10
-1.206260827e-10
1.864469393e-10
4.931024988e-10
7.975371213e-10
1.097860226e-09
1.392052878e-09
1.677942849e-09
1.95319779e-09
2.215337026e-09
2.461761058e-09
2.689796715e-09
2.896755062e-09
3.079998565e-09
3.237013645e-09
3.365484612e-09
3.463365211e-09
3.528943922e-09
3.560900102e-09
3.558348053e-09
3.520867258e-09
3.448517521e-09
3.34183867e-09
3.201835488e-09
3.029949201e-09
2.828017756e-09
2.598227618e-09
2.343060219e-09
2.065236364e-09
1.767661563e-09
1.453374903e-09
1.125503424e-09
7.872230983e-10
4.417265153e-10
9.219684339e-11
-2.582134833e-10
-6.06400914e-10
-9.493279137e-10
-1.284040798e-09
-1.607689883e-09
-1.917552799e-09
-2.211061161e-09
-2.485830041e-09
-2.739688984e-09
-2.970712924e-09
-3.177250962e-09
-3.357950928e-09
-3.511777968e-09
-3.638025896e-09
-3.736320515e-09
-3.80661501e-09
-3.849178026e-09
-3.864575737e-09
-3.853649584e-09
-3.817491595e-09
-3.757419036e-09
-3.67494999e-09
-3.571780906e-09
-3.449766448e-09
-3.310901557e-09
-3.157304564e-09
-2.991200122e-09
-2.814899941e-09
-2.630779415e-09
-2.441248417e-09
-2.248714625e-09
-2.055538963e-09
-1.863983097e-09
-1.67615022e-09
-1.493921279e-09
-1.318889906e-09
-1.15229983e-09
-9.949893077e-10
-8.47347185e-10
-7.092851276e-10
-5.802295692e-10
-4.591365901e-10
-3.445307682e-10
-2.345685012e-10
-1.271234237e-10
-1.989107595e-11
8.949276891e-11
2.033260311e-10
3.237141365e-10
4.52451284e-10
5.909169554e-10
7.399945245e-10
9.000181083e-10
1.070751289e-09
1.251399966e-09
1.440658699e-09
1.63678759e-09
1.837714348e-09
2.041154059e-09
2.24473748e-09
2.446138276e-09
2.643189078e-09
2.8339771e-09
3.016912297e-09
3.190762735e-09
3.354655347e-09
3.508043174e-09
3.650643694e-09
3.782355264e-09
3.903161045e-09
4.013030852e-09
4.111831375e-09
4.199254184e-09
4.27476917e-09
4.337607564e-09
4.386776629e-09
4.421103934e-09
4.439307082e-09
4.440082234e-09
4.422203733e-09
4.38462678e-09
4.326585775e-09
4.2476816e-09
4.147952837e-09
4.02792712e-09
3.88864969e-09
3.731686175e-09
3.559098115e-09
3.373387725e-09
3.177410054e-09
2.974251068e-09
2.767071516e-09
2.558921488e-09
2.352533541e-09
2.150110273e-09
1.953127177e-09
1.762177993e-09
1.576893129e-09
1.395961222e-09
1.217278559e-09
1.038240966e-09
8.561752589e-10
6.688859279e-10
4.75269153e-10
2.759217741e-10
7.365192039e-11
-1.262128175e-10
-3.158251245e-10
-4.852154714e-10
-6.231460947e-10
-7.184313104e-10
-7.616719518e-10
-7.472808111e-10
-6.756033584e-10
-5.5487338e-10
-4.026973291e-10
-2.467425834e-10
-1.243239584e-10
-8.064323403e-11
-1.655433112e-10
-4.287829564e-10
-9.140177991e-10
-1.65186882e-09
-2.65265407e-09
-3.899533114e-09
-5.342941129e-09
-6.897257557e-09
-8.4406526e-09
-9.819014733e-09
-1.085480647e-08
-1.136179179e-08
-1.116643839e-08
-1.013708252e-08
-8.217266777e-09
-5.457818475e-09
-1.997619486e-09
2.052863847e-09
4.570334185e-09
4.900362055e-09
5.16715451e-09
5.418985181e-09
5.666927446e-09
5.913046345e-09
6.156791117e-09
6.397207488e-09
6.633276507e-09
6.864209342e-09
7.089411034e-09
7.308387442e-09
7.520709884e-09
7.725919024e-09
7.923539944e-09
8.113077473e-09
8.293984179e-09
8.465687352e-09
8.627583342e-09
8.779048385e-09
8.919422262e-09
9.047999378e-09
9.164064656e-09
9.266853494e-09
9.355586959e-09
9.429401441e-09
9.487439284e-09
9.528770096e-09
9.552446975e-09
9.557435561e-09
9.542690026e-09
9.50708104e-09
9.44944156e-09
9.368544293e-09
9.26307773e-09
9.131691628e-09
8.972957975e-09
8.785361061e-09
8.567326041e-09
8.317193916e-09
8.033212248e-09
7.713541751e-09
7.356245211e-09
6.95930169e-09
6.520564356e-09
6.037782837e-09
5.508605705e-09
4.930543414e-09
4.300977551e-09
3.617174975e-09
2.876242188e-09
2.075153828e-09
1.210714416e-09
2.795891888e-10
-7.217392596e-10
-1.796962677e-09
-2.949959168e-09
-4.184797691e-09
-5.505742227e-09
-6.917268442e-09
-8.424085702e-09
-1.00311076e-08
-1.174351004e-08
-1.356669532e-08
-1.550634344e-08
-1.756837815e-08
-1.975902664e-08
-2.208479748e-08
-2.455248869e-08
-2.716923452e-08
-2.994247087e-08
-3.287997918e-08
-3.598987746e-08
-3.928066977e-08
-4.276119527e-08
-4.644071621e-08
-5.032885445e-08
-5.443566639e-08
-5.877161492e-08
-6.334761128e-08
-6.817500368e-08
-7.326560134e-08
-7.863170232e-08
-8.428604979e-08
-9.024193767e-08
-9.65131252e-08
-1.03113929e-07
-1.100591803e-07
-1.173642511e-07
-1.250450935e-07
-1.331182177e-07
-1.416007111e-07
-1.50510263e-07
-1.598651552e-07
-1.696842834e-07
-1.799871732e-07
-1.907939587e-07
-2.0212543e-07
-2.140030113e-07
-2.26448783e-07
-2.394854834e-07
-2.531364968e-07
-2.674259043e-07
-2.823784167e-07
-2.980194508e-07
-3.143750834e-07
-3.314720447e-07
-3.493377621e-07
-3.680003238e-07
-3.874884774e-07
-4.078316378e-07
-4.290598744e-07
-4.512038902e-07
-4.742950449e-07
-4.983653106e-07
-5.23447287e-07
-5.495741524e-07
-5.767797166e-07
-6.050983088e-07
-6.345648407e-07
-6.65214743e-07
-6.970839646e-07
-7.302089372e-07
-7.646265493e-07
-8.003741426e-07
-8.374894295e-07
-8.760105406e-07
-9.159759129e-07
-9.574243255e-07
-1.000394808e-06
-1.044926634e-06
-1.091059285e-06
-1.138832388e-06
-1.188285711e-06
-1.239459067e-06
-1.292392298e-06
-1.347125258e-06
-1.403697707e-06
-1.462149301e-06
-1.522519552e-06
-1.584847719e-06
-1.64917282e-06
-1.71553354e-06
-1.783968218e-06
-1.854514724e-06
-1.92721049e-06
-2.002092363e-06
-2.079196634e-06
-2.158558944e-06
-2.24021421e-06
-2.324196609e-06
-2.410539482e-06
-2.499275337e-06
-2.590435725e-06
-2.684051251e-06
-2.780151474e-06
-2.878764881e-06
-2.979918857e-06
-3.083639581e-06
-3.189952038e-06
-3.298879953e-06
-3.410445735e-06
-3.524670494e-06
-3.641573907e-06
-3.761174291e-06
-3.883488541e-06
-4.008532038e-06
-4.136318734e-06
-4.266861051e-06
-4.400169913e-06
-4.536254738e-06
-4.675123369e-06
-4.816782183e-06
-4.961236009e-06
-5.108488159e-06
-5.258540463e-06
-5.411393305e-06
-5.567045585e-06
-5.725494819e-06
-5.886737187e-06
-6.050767495e-06
-6.217579328e-06
-6.387165071e-06
-6.559515971e-06
-6.734622199e-06
-6.91247302e-06
-7.093056755e-06
-7.276361013e-06
-7.462372691e-06
-7.651078166e-06
-7.842463416e-06
-8.036514089e-06
-8.23321574e-06
-8.432553898e-06
-8.634514309e-06
-8.839083072e-06
-9.046246789e-06
-9.255992817e-06
-9.468309448e-06
-9.683186111e-06
-9.900613582e-06
-1.012058428e-05
-1.03430924e-05
-1.056813437e-05
-1.079570879e-05
-1.102581705e-05
-1.125846344e-05
-1.149365542e-05
-1.173140402e-05
-1.197172416e-05
-1.221463483e-05
-1.246015973e-05
-1.270832725e-05
-1.295917118e-05
-1.321273083e-05
-1.346905153e-05
-1.372818515e-05
-1.399019026e-05
-1.425513272e-05
-1.452308604e-05
-1.479413195e-05
-1.506836075e-05
-1.534587175e-05
-1.562677388e-05
-1.591118611e-05
-1.619923798e-05
-1.649107005e-05
-1.678683459e-05
-1.708669604e-05
-1.739083142e-05
-1.769943122e-05
-1.80126998e-05
-1.833085592e-05
-1.865413355e-05
-1.898278228e-05
-1.931706815e-05
-1.96572742e-05
-2.000370117e-05
-2.035666822e-05
-2.071651353e-05
-2.108359506e-05
-2.145829135e-05
-2.18410022e-05
-2.223214938e-05
-2.263217748e-05
-2.304155479e-05
-2.346077388e-05
-2.38903525e-05
-2.433083477e-05
-2.478279141e-05
-2.524682114e-05
-2.572355155e-05
-2.621363972e-05
-2.67177734e-05
-2.723667207e-05
-2.777108781e-05
-2.832180607e-05
-2.888964708e-05
-2.947546624e-05
-3.008015471e-05
-3.07046391e-05
-3.134986907e-05
-3.201699694e-05
-3.27027283e-05
-3.341279223e-05
-3.415156603e-05
-3.492571953e-05
-3.572506202e-05
-3.655067399e-05
-3.740387328e-05
-3.828602778e-05
-3.919857422e-05
-4.014301431e-05
-4.11209196e-05
-4.213393445e-05
-4.318378038e-05
-4.42722288e-05
-4.540229241e-05
-4.659387825e-05
-4.783240354e-05
-4.911960916e-05
-5.045776853e-05
-5.184456432e-05
-5.328304465e-05
-5.477874765e-05
-5.633409974e-05
-5.795153506e-05
-5.963361105e-05
-6.138298742e-05
-6.320242337e-05
-6.509478149e-05
-6.706303132e-05
-6.91102535e-05
-7.123964679e-05
-7.345453192e-05
-7.575835936e-05
-7.81547164e-05
-8.064733392e-05
-8.324009555e-05
-8.59370475e-05
-8.874240814e-05
-9.166058114e-05
-9.469616751e-05
-9.785398248e-05
-0.0001011390709
-0.0001045567286
-0.0001081125236
-0.0001118123226
-0.0001156623208
-0.0001196690752
-0.0001238395454
-0.0001281811386
-0.0001327017633
-0.0001374098905
-0.0001423146271
-0.0001474257988
-0.0001527540494
-0.0001583109551
-0.0001641091592
-0.0001701625313
-0.0001764863496
-0.0001830975206
-0.0001900148329
-0.0001972592576
-0.0002048542985
-0.000212826409
-0.0002212054771
-0.0002300253991
-0.0002393247532
-0.0002491475938
-0.0002595443856
-0.0002705731029
-0.0002823005245
-0.0002948037573
-0.0003081720327
-0.000322508818
-0.0003379343052
-0.0003545883408
-0.0003726338726
-0.0003922610137
-0.0004136918146
-0.000437185895
-0.0004630470597
-0.0004916310898
-0.000523354911
-0.000558707376
-0.0005982619521
-0.0006426916427
-0.0006927865356
-0.0007494744369
-0.000813845128
-0.0008871788806
-0.0009709799687
-0.001067016042
-0.001177364387
-0.001304466265
-0.001451190716
-0.00162090948
-0.001817584935
-0.002045873305
-0.002311245729
-0.002620130316
-0.002980078684
-0.003399961233
-0.003890195979
-0.004463016714
-0.005132787026
-0.005916368025
-0.00683354875
-0.007907549666
-0.009165611573
-0.010639684
-0.01236722946
-0.01439216276
-0.01676594715
-0.01954887307
-0.02281154841
-0.02663663467
-0.03112086711
-0.03637740428
-0.04253855695
-0.04975895485
-0.05821921709
-0.06813020047
-0.07973790867
-0.09332915747
-0.1092380978
-0.1278537115
-0.1496284053
-0.1750878339
-0.2048420962
-0.2395984473
-0.2801756746
-0.327520277
-0.3827245683
-0.4470468023
-0.5219333731
-0.6090430616
-0.7102732248
-0.8277876667
-0.9640457678
-1.121832189
-1.304286186
-1.514929141
-1.757688501
-2.036915639
-2.357394552
-2.724338632
-3.143364236
-3.620450909
-4.161861793
-4.774031116
-5.463405452
-6.236228739
-7.098278265
-8.054510579
-9.108657278
-10.26273938
-11.51651781
-12.86689031
-14.30725619
-15.82687911
-17.41028846
-19.03676859
-20.67999113
-22.30784826
-23.88254316
-25.36097666
-26.6954695
-27.83481282
-28.72562964
-29.31398977
-29.54717739
-29.37554232
-28.75418467
-27.64445987
-26.01508136
-23.84267899
-21.11207617
-17.81561979
-13.95269858
-9.528621014
-4.55384704
0.9555929979
6.974249219
13.45817908
20.32317342
27.98856522
35.77933534
47.21231358
57.41900758
65.49594028
62.39006868
75.70735329
84.44095808
88.61582989
86.68541233
76.64670133
58.48992913
34.25623548
6.669660536
-24.94255269
-65.45805437
-115.3519498
-135.8255742
-201.1415588
-272.6365124
-347.2814984
-378.0439279
-453.3456517
-527.7465268
-597.7891587
-586.4652844
-633.0837112
-661.7751477
-671.7672552
-663.8944121
-640.615588
-604.457337
-539.7324428
-485.7569869
-422.6808072
-362.6037065
-304.8660881
-251.8577503
-205.6801319
-167.750995
-135.7031636
-104.5061905
-80.43296248
-62.0000664
-47.49121893
-36.474158
-29.51546656
-25.8073556
-24.31221211
-24.34875907
-20.424089
-17.06767721
-15.69147234
-13.94631188
-12.12127771
-10.39097291
-8.837306801
-7.48523909
-6.298441251
-5.312153081
-4.474730832
-3.765840711
-3.166928401
-2.661665074
-2.235930215
-1.877605906
-1.576328752
-1.323253157
-1.110849992
-0.9326978562
-0.7833505153
-0.6581956175
-0.5533346044
-0.4654792134
-0.3918616734
-0.3301569256
-0.2784151581
-0.2350036967
-0.1985571201
-0.1679346223
-0.1421837152
-0.1205095371
-0.1022489215
-0.08684859025
-0.07384686608
-0.06285837482
-0.05356127452
-0.04568661172
-0.03900946185
-0.03334156189
-0.02852518801
-0.02442806956
-0.02093916467
-0.01796515108
-0.01542751039
-0.01326010408
-0.01140715737
-0.009821580771
-0.008463571852
-0.007299449153
-0.006300678782
-0.005443060979
-0.004706049548
-0.004072181833
-0.003526600665
-0.003056652986
-0.00265155241
-0.002302095216
-0.002000420986
-0.001739810661
-0.001514515934
-0.001319614961
-0.001150890194
-0.001004724819
-0.0008780148824
-0.0007680946354
-0.0006726730638
-0.0005897798596
-0.0005177193935
-0.0004550314675
-0.0004004578186
-0.0003529135095
-0.0003114624727
-0.0002752965879
-0.0002437177718
-0.0002161226334
-0.0001919893193
-0.0001708662295
-0.0001523623297
-0.0001361388311
-0.0001219020391
-0.0001093972025
-9.840322275e-05
-8.872809599e-05
-8.02049883e-05
-7.268885185e-05
-6.605350683e-05
-6.018912294e-05
-5.500004484e-05
-5.040291373e-05
-4.632504405e-05
-4.270301884e-05
-3.948147485e-05
-3.661205041e-05
-3.405246294e-05
-3.176576416e-05
-2.971958607e-05
-2.788559844e-05
-2.623897112e-05
-2.475793428e-05
-2.342338636e-05
-2.221855599e-05
-2.112870745e-05
-2.014088472e-05
-1.924368817e-05
-1.842708052e-05
-1.768221738e-05
-1.70012996e-05
-1.637744429e-05
-1.580457259e-05
-1.527731124e-05
-1.479090694e-05
-1.434115112e-05
-1.392431443e-05
-1.353708917e-05
-1.31765391e-05
-1.284005533e-05
-1.252531771e-05
-1.223026082e-05
-1.195304432e-05
-1.169202677e-05
-1.144574269e-05
-1.121288247e-05
-1.099227433e-05
-1.078286898e-05
-1.058372567e-05
-1.039400005e-05
-1.02129335e-05
-1.003984367e-05
-9.874116031e-06
-9.715196582e-06
-9.562585255e-06
-9.415830102e-06
-9.274522154e-06
-9.138290963e-06
-9.006800473e-06
-8.879745439e-06
-8.756848336e-06
-8.637856304e-06
-8.522538814e-06
-8.410685364e-06
-8.302103465e-06
-8.196616834e-06
-8.094063749e-06
-7.994295758e-06
-7.897176158e-06
-7.80257917e-06
-7.710388672e-06
-7.620497375e-06
-7.532805927e-06
-7.447222246e-06
-7.36366085e-06
-7.282042152e-06
-7.202292067e-06
-7.124341443e-06
-7.048125609e-06
-6.973584033e-06
-6.900659955e-06
-6.829299985e-06
-6.759453941e-06
-6.691074514e-06
-6.624117013e-06
-6.558539151e-06
-6.494300951e-06
-6.43136438e-06
-6.369693393e-06
-6.309253607e-06
-6.250012315e-06
-6.191938279e-06
-6.135001614e-06
-6.07917373e-06
-6.024427244e-06
-5.970735877e-06
-5.918074292e-06
-5.866418239e-06
-5.815744251e-06
-5.766029777e-06
-5.717253003e-06
-5.669392837e-06
-5.622428927e-06
-5.576341519e-06
-5.531111514e-06
-5.486720316e-06
-5.443149939e-06
-5.400382877e-06
-5.358402093e-06
-5.317191051e-06
-5.276733612e-06
-5.237014069e-06
-5.198017135e-06
-5.159727837e-06
-5.122131621e-06
-5.085214218e-06
-5.048961737e-06
-5.013360585e-06
-4.978397442e-06
-4.944059316e-06
-4.910333478e-06
-4.877207439e-06
-4.844668998e-06
-4.812706206e-06
-4.78130732e-06
-4.75046086e-06
-4.720155533e-06
-4.690380301e-06
-4.661124311e-06
-4.632376899e-06
-4.604127619e-06
-4.57636621e-06
-4.549082613e-06
-4.522266888e-06
-4.495909324e-06
-4.470000367e-06
-4.444530598e-06
-4.419490805e-06
-4.394871901e-06
-4.370664958e-06
-4.34686119e-06
-4.323451958e-06
-4.300428789e-06
-4.277783287e-06
-4.255507248e-06
-4.233592577e-06
-4.212031298e-06
-4.190815572e-06
-4.169937674e-06
-4.149390039e-06
-4.129165147e-06
-4.109255641e-06
-4.089654272e-06
-4.070353888e-06
-4.051347442e-06
-4.03262801e-06
-4.01418877e-06
-3.996022985e-06
-3.978124041e-06
-3.960485366e-06
-3.943100563e-06
-3.925963275e-06
-3.909067236e-06
-3.892406319e-06
-3.875974423e-06
-3.85976557e-06
-3.843773852e-06
-3.827993475e-06
-3.812418683e-06
-3.797043834e-06
-3.781863352e-06
-3.766871743e-06
-3.752063589e-06
-3.737433538e-06
-3.722976331e-06
-3.708686764e-06
-3.694559718e-06
-3.680590128e-06
-3.666773026e-06
-3.653103481e-06
-3.639576659e-06
-3.626187758e-06
-3.612932075e-06
-3.599804956e-06
-3.586801816e-06
-3.573918111e-06
-3.561149407e-06
-3.548491255e-06
-3.535939344e-06
-3.523489374e-06
-3.511137102e-06
-3.49887838e-06
-3.486709081e-06
-3.474625139e-06
-3.462622548e-06
-3.450697369e-06
-3.438845692e-06
-3.427063675e-06
-3.415347525e-06
-3.403693495e-06
-3.392097909e-06
-3.38055709e-06
-3.369067481e-06
-3.357625528e-06
-3.346227727e-06
-3.334870633e-06
-3.32355085e-06
-3.312265019e-06
-3.301009846e-06
-3.289782052e-06
-3.278578424e-06
-3.267395797e-06
-3.256231053e-06
-3.245081053e-06
-3.23394283e-06
-3.222813332e-06
-3.211689631e-06
-3.200568804e-06
-3.189447977e-06
-3.178324313e-06
-3.167195041e-06
-3.156057394e-06
-3.144908678e-06
-3.133746209e-06
-3.122567375e-06
-3.111369579e-06
-3.100150261e-06
-3.088906921e-06
-3.077637088e-06
-3.066338317e-06
-3.055008212e-06
-3.043644435e-06
-3.032244617e-06
-3.020806527e-06
-3.009327887e-06
-2.997806484e-06
-2.986244198e-06
-2.974630707e-06
-2.962968037e-06
-2.951254108e-06
-2.939487705e-06
-2.927665267e-06
-2.915785704e-06
-2.903847005e-06
-2.891847324e-06
-2.879784797e-06
-2.867657609e-06
-2.85546396e-06
-2.843202136e-06
-2.830870409e-06
-2.818467117e-06
-2.805990613e-06
-2.793439295e-06
-2.780811582e-06
-2.768105958e-06
-2.755320913e-06
-2.742454999e-06
-2.729506761e-06
-2.716474814e-06
-2.7033578e-06
-2.690154397e-06
-2.676863299e-06
-2.663483262e-06
-2.650013047e-06
-2.63645149e-06
-2.622797418e-06
-2.609049714e-06
-2.595207299e-06
-2.581269126e-06
-2.567234169e-06
-2.553101465e-06
-2.538870051e-06
-2.524539037e-06
-2.510107521e-06
-2.495574689e-06
-2.480939714e-06
-2.466201848e-06
-2.451360339e-06
-2.43641449e-06
-2.421363646e-06
-2.406207169e-06
-2.390944459e-06
-2.375574987e-06
-2.360098197e-06
-2.344513624e-06
-2.32882081e-06
-2.313019343e-06
-2.297108847e-06
-2.281088979e-06
-2.26495943e-06
-2.248719937e-06
-2.232370271e-06
-2.215910222e-06
-2.199339652e-06
-2.182658406e-06
-2.165866428e-06
-2.148963674e-06
-2.131950126e-06
-2.114825793e-06
-2.097590761e-06
-2.080245125e-06
-2.062789033e-06
-2.045222649e-06
-2.027546211e-06
-2.009759952e-06
-1.991864163e-06
-1.973859209e-06
-1.955745414e-06
-1.937523223e-06
-1.91919306e-06
-1.900755433e-06
-1.882210855e-06
-1.863559878e-06
-1.844803124e-06
-1.825941241e-06
-1.806974889e-06
-1.787904803e-06
-1.768731749e-06
-1.749456531e-06
-1.730079975e-06
-1.710602976e-06
-1.691026454e-06
-1.671351363e-06
-1.651578714e-06
-1.631709552e-06
-1.611744944e-06
-1.591686031e-06
-1.571533969e-06
-1.55128996e-06
-1.53095526e-06
-1.510531128e-06
-1.490018925e-06
-1.469419996e-06
-1.44873575e-06
-1.427967649e-06
-1.407117163e-06
-1.386185842e-06
-1.365175234e-06
-1.344086973e-06
-1.322922686e-06
-1.301684084e-06
-1.280372897e-06
-1.258990898e-06
-1.237539889e-06
-1.216021733e-06
-1.19443833e-06
-1.172791595e-06
-1.151083522e-06
-1.129316125e-06
-1.107491442e-06
-1.085611558e-06
-1.063678641e-06
-1.041694827e-06
-1.01966234e-06
-9.975834178e-07
-9.754603784e-07
-9.532955025e-07
-9.310911726e-07
-9.088498026e-07
-8.865738047e-07
-8.642656764e-07
-8.419278904e-07
-8.195630397e-07
-7.9717367e-07
-7.74762409e-07
-7.523319139e-07
-7.298848656e-07
-7.074239827e-07
-6.849520121e-07
-6.624717428e-07
-6.39986002e-07
-6.174976216e-07
-5.950094924e-07
-5.725245071e-07
-5.500456199e-07
-5.275757865e-07
-5.051180046e-07
-4.826752954e-07
-4.602506969e-07
-4.378472914e-07
-4.154681474e-07
-3.931164223e-07
-3.707952127e-07
-3.485077116e-07
-3.26257047e-07
-3.040464514e-07
-2.818791063e-07
-2.597582295e-07
-2.376870561e-07
-2.156688245e-07
-1.937067499e-07
-1.718041076e-07
-1.499641088e-07
-1.281900304e-07
-1.064850718e-07
-8.485250093e-08
-6.329550559e-08
-4.181732885e-08
-2.041735743e-08
8.936774181e-10
2.211632325e-08
4.324737853e-08
6.42836659e-08
8.52219404e-08
1.060597532e-07
1.267923122e-07
1.474169958e-07
1.67930177e-07
1.883280257e-07
2.086061478e-07
2.287594916e-07
2.48781838e-07
2.686646186e-07
2.883971601e-07
3.079617042e-07
3.273380571e-07
3.464792523e-07
3.653675459e-07
3.837866133e-07
4.020219511e-07
4.189684977e-07
4.357000572e-07
4.508443714e-07
4.634455177e-07
4.729793353e-07
4.833500067e-07
6.05562536e-07
9.482931287e-07
1.194933131e-06
1.404417043e-06
1.575864472e-06
1.710430288e-06
1.809651949e-06
1.875133709e-06
1.908601048e-06
1.911885529e-06
1.886894225e-06
1.835597889e-06
1.760013943e-06
1.662191233e-06
1.544195359e-06
1.408094738e-06
1.25594758e-06
1.089789849e-06
9.116242548e-07
7.234102121e-07
5.270550637e-07
3.244060708e-07
1.172437289e-07
-9.272411125e-08
-3.038671613e-07
-5.146365565e-07
-7.23568205e-07
-9.292850057e-07
-1.130498917e-06
-1.326011853e-06
-1.514716862e-06
-1.695598178e-06
-1.867731758e-06
-2.030285045e-06
-2.182517159e-06
-2.323778719e-06
-2.453512033e-06
-2.571251066e-06
-2.676621736e-06
-2.769342103e-06
-2.849222568e-06
-2.91616593e-06
-2.97016721e-06
-3.011313033e-06
-3.039780462e-06
-3.055835107e-06
-3.059828325e-06
-3.052193411e-06
-3.033440658e-06
-3.004151245e-06
-2.964969927e-06
-2.916596595e-06
-2.859776855e-06
-2.795291707e-06
-2.723946727e-06
-2.646560834e-06
-2.563955115e-06
-2.476941954e-06
-2.386314764e-06
-2.292838723e-06
-2.197242622e-06
-2.100212143e-06
-2.002384689e-06
-1.904345723e-06
-1.806626726e-06
-1.709704634e-06
-1.614002605e-06
-1.519891929e-06
-1.427694866e-06
-1.337688104e-06
-1.250106733e-06
-1.165148321e-06
-1.082977015e-06
-1.003727445e-06
-9.275083174e-07
-8.544055735e-07
-7.844851285e-07
-7.177951215e-07
-6.543677074e-07
-5.942204797e-07
-5.373575198e-07
-4.837701713e-07
-4.334376175e-07
-3.863273092e-07
-3.423953111e-07
-3.015866105e-07
-2.638354401e-07
-2.290656434e-07
-1.971910872e-07
-1.681161639e-07
-1.417363692e-07
-1.179389697e-07
-9.660376221e-08
-7.760391662e-08
-6.080689857e-08
-4.607547339e-08
-3.326877837e-08
-2.224345065e-08
-1.28548058e-08
-4.958043192e-09
1.590529197e-09
6.93227682e-09
1.120504682e-08
1.454202346e-08
1.707065624e-08
1.891167836e-08
2.017824189e-08
2.097518078e-08
2.139842557e-08
2.153457075e-08
2.146061015e-08
2.124383555e-08
2.094190115e-08
2.060304315e-08
2.026644256e-08
1.996272093e-08
1.971454432e-08
1.953732e-08
1.943996279e-08
1.942570878e-08
1.949295322e-08
1.963609134e-08
1.984634579e-08
2.011255736e-08
2.04219263e-08
2.076069197e-08
2.111473904e-08
2.14701277e-08
2.181353496e-08
2.213261634e-08
2.241628299e-08
2.265489793e-08
2.28403996e-08
2.296635611e-08
2.302796275e-08
2.302198674e-08
2.294667088e-08
2.280160574e-08
2.258757838e-08
2.230640562e-08
2.196075903e-08
2.155399333e-08
2.108997529e-08
2.05729259e-08
2.000727798e-08
1.939754644e-08
1.874822371e-08
1.806368896e-08
1.734814442e-08
1.660556588e-08
1.58396773e-08
1.505393896e-08
1.425155427e-08
1.343548892e-08
1.26085002e-08
1.177317489e-08
1.093197362e-08
1.008727607e-08
9.241425963e-09
8.396774872e-09
7.555719142e-09
6.720730268e-09
5.894377525e-09
5.079338466e-09
4.278401074e-09
3.494453741e-09
2.730463965e-09
1.989449134e-09
1.274436499e-09
5.884171826e-10
-6.570651628e-11
-6.851751599e-10
-1.267430304e-09
-1.810169405e-09
-2.311399911e-09
-2.769487132e-09
-3.183197263e-09
-3.551732568e-09
-3.874758598e-09
-4.152421476e-09
-4.385358847e-09
-4.574699357e-09
-4.722055565e-09
-4.829508778e-09
-4.899587375e-09
-4.935238451e-09
-4.939795346e-09
-4.916940478e-09
-4.870664585e-09
-4.805222728e-09
-4.725088978e-09
-4.634907455e-09
-4.539441011e-09
-4.44352017e-09
-4.351986704e-09
-4.269637682e-09
-4.20116594e-09
-4.151099958e-09
-4.123740794e-09
-4.12309942e-09
-4.152833687e-09
-4.216184811e-09
-4.315917104e-09
-4.454260963e-09
-4.632859324e-09
-4.852722024e-09
-5.114186075e-09
-5.416886646e-09
-5.759737653e-09
-6.140923969e-09
-6.557906519e-09
-7.007439069e-09
-7.485599719e-09
-7.987833335e-09
-8.5090078e-09
-9.04348078e-09
-9.585176137e-09
-1.012766968e-08
-1.066428079e-08
-1.118816931e-08
-1.169243422e-08
-1.217021392e-08
-1.261478424e-08
-1.301965299e-08
-1.337864993e-08
-1.368600886e-08
-1.393644288e-08
-1.412520933e-08
-1.424816471e-08
-1.430180988e-08
-1.428332294e-08
-1.419058205e-08
-1.402217654e-08
-1.377740861e-08
-1.345628428e-08
-1.305949639e-08
-1.25884003e-08
-1.204498274e-08
-1.143182659e-08
-1.075207063e-08
-1.000936497e-08
-9.207820619e-09
-8.351950944e-09
-7.446599951e-09
-6.496851174e-09
-5.50789881e-09
-4.484866221e-09
-3.432239009e-09
-2.353665746e-09
-1.250969431e-09
)
;

boundaryField
{
    inlet
    {
        type            calculated;
        value           uniform 0;
    }
    outlet
    {
        type            calculated;
        value           uniform -9.225001896e-10;
    }
    wall
    {
        type            empty;
    }
}


// ************************************************************************* //
