/*--------------------------------*- C++ -*----------------------------------*\
  =========                 |
  \\      /  F ield         | OpenFOAM: The Open Source CFD Toolbox
   \\    /   O peration     | Website:  https://openfoam.org
    \\  /    A nd           | Version:  7
     \\/     M anipulation  |
\*---------------------------------------------------------------------------*/
FoamFile
{
    version     2.0;
    format      ascii;
    class       volScalarField;
    location    "0.000558243009";
    object      ddt0(rho,C3H5O);
}
// * * * * * * * * * * * * * * * * * * * * * * * * * * * * * * * * * * * * * //

dimensions      [1 -3 -1 0 0 0 0];

internalField   nonuniform List<scalar> 
1500
(
-2.02632246e-18
-2.936254608e-18
-2.417602212e-18
-1.867325664e-18
-1.588895062e-18
-1.474002278e-18
-1.434660267e-18
-1.426497813e-18
-1.428149674e-18
-1.431118413e-18
-1.433239242e-18
-1.434539426e-18
-1.435384466e-18
-1.436004442e-18
-1.436490688e-18
-1.436872833e-18
-1.437163439e-18
-1.437373454e-18
-1.437514116e-18
-1.43759529e-18
-1.437624322e-18
-1.437606195e-18
-1.437544553e-18
-1.437442941e-18
-1.437305749e-18
-1.437138602e-18
-1.436948241e-18
-1.436742054e-18
-1.436527498e-18
-1.436311586e-18
-1.436100551e-18
-1.435899726e-18
-1.435713571e-18
-1.435545806e-18
-1.435399551e-18
-1.435277428e-18
-1.435181617e-18
-1.435113848e-18
-1.43507536e-18
-1.43506684e-18
-1.43508837e-18
-1.435139403e-18
-1.435218777e-18
-1.435324761e-18
-1.435455121e-18
-1.435607202e-18
-1.435778015e-18
-1.435964316e-18
-1.436162682e-18
-1.436369585e-18
-1.436581452e-18
-1.43679473e-18
-1.437005942e-18
-1.437211746e-18
-1.437408983e-18
-1.437594729e-18
-1.437766337e-18
-1.437921472e-18
-1.438058143e-18
-1.438174725e-18
-1.438269976e-18
-1.438343041e-18
-1.438393454e-18
-1.438421133e-18
-1.43842636e-18
-1.438409764e-18
-1.43837229e-18
-1.438315165e-18
-1.438239849e-18
-1.438147995e-18
-1.438041389e-18
-1.437921906e-18
-1.437791455e-18
-1.437651934e-18
-1.43750519e-18
-1.437352995e-18
-1.437197018e-18
-1.437038824e-18
-1.436879872e-18
-1.436721522e-18
-1.436565054e-18
-1.436411683e-18
-1.436262581e-18
-1.436118894e-18
-1.435981754e-18
-1.435852289e-18
-1.435731625e-18
-1.435620882e-18
-1.435521159e-18
-1.435433523e-18
-1.435358977e-18
-1.435298442e-18
-1.435252724e-18
-1.435222491e-18
-1.435208247e-18
-1.435210312e-18
-1.435228808e-18
-1.435263648e-18
-1.435314538e-18
-1.435380979e-18
-1.435462281e-18
-1.435557583e-18
-1.435665876e-18
-1.435786028e-18
-1.435916819e-18
-1.436056961e-18
-1.436205134e-18
-1.43636e-18
-1.436520226e-18
-1.436684496e-18
-1.436851517e-18
-1.437020022e-18
-1.437188769e-18
-1.437356536e-18
-1.437522118e-18
-1.437684323e-18
-1.437841973e-18
-1.437993906e-18
-1.438138982e-18
-1.438276097e-18
-1.438404199e-18
-1.438522305e-18
-1.438629522e-18
-1.438725069e-18
-1.438808294e-18
-1.438878688e-18
-1.4389359e-18
-1.438979738e-18
-1.439010174e-18
-1.439027336e-18
-1.439031497e-18
-1.439023069e-18
-1.439002578e-18
-1.438970657e-18
-1.438928022e-18
-1.438875465e-18
-1.438813835e-18
-1.438744031e-18
-1.438666993e-18
-1.438583695e-18
-1.438495136e-18
-1.438402339e-18
-1.438306336e-18
-1.43820816e-18
-1.43810883e-18
-1.438009331e-18
-1.437910595e-18
-1.437813474e-18
-1.437718713e-18
-1.437626924e-18
-1.437538559e-18
-1.437453892e-18
-1.437373e-18
-1.43729576e-18
-1.437221846e-18
-1.437150751e-18
-1.437081803e-18
-1.437014203e-18
-1.436947071e-18
-1.436879497e-18
-1.436810593e-18
-1.436739555e-18
-1.436665713e-18
-1.436588584e-18
-1.436507905e-18
-1.436423663e-18
-1.436336104e-18
-1.436245729e-18
-1.436153273e-18
-1.436059668e-18
-1.435965995e-18
-1.435873426e-18
-1.435783159e-18
-1.435696355e-18
-1.435614082e-18
-1.435537257e-18
-1.435466616e-18
-1.435402684e-18
-1.435345775e-18
-1.435295998e-18
-1.43525328e-18
-1.435217408e-18
-1.435188065e-18
-1.43516488e-18
-1.435147469e-18
-1.435135479e-18
-1.435128613e-18
-1.43512665e-18
-1.435129458e-18
-1.435136987e-18
-1.435149261e-18
-1.435166359e-18
-1.435188393e-18
-1.43521548e-18
-1.435247717e-18
-1.435285153e-18
-1.435327758e-18
-1.435375397e-18
-1.435427804e-18
-1.435484562e-18
-1.435545086e-18
-1.435608623e-18
-1.43567426e-18
-1.435740968e-18
-1.435807655e-18
-1.435873257e-18
-1.435936847e-18
-1.435997754e-18
-1.436055695e-18
-1.436110871e-18
-1.436164038e-18
-1.436216504e-18
-1.43627004e-18
-1.436326701e-18
-1.436388538e-18
-1.436457224e-18
-1.436533629e-18
-1.43661737e-18
-1.436706431e-18
-1.436796891e-18
-1.436882865e-18
-1.436956694e-18
-1.437009461e-18
-1.437031823e-18
-1.437015152e-18
-1.436952899e-18
-1.436842071e-18
-1.436684648e-18
-1.436488742e-18
-1.436269284e-18
-1.436048026e-18
-1.435852696e-18
-1.435715184e-18
-1.435668755e-18
-1.435744376e-18
-1.435966389e-18
-1.436347853e-18
-1.436886032e-18
-1.437558553e-18
-1.438320834e-18
-1.439105418e-18
-1.439823933e-18
-1.440372728e-18
-1.440644158e-18
-1.440547367e-18
-1.440045326e-18
-1.439212692e-18
-1.438300994e-18
-1.437706588e-18
-1.437552026e-18
-1.436892114e-18
-1.436892343e-18
-1.436955243e-18
-1.437035208e-18
-1.437124358e-18
-1.437222411e-18
-1.437330892e-18
-1.437451335e-18
-1.437584982e-18
-1.437732754e-18
-1.437895408e-18
-1.438073672e-18
-1.438268293e-18
-1.438480087e-18
-1.438709927e-18
-1.438958729e-18
-1.439227472e-18
-1.439517177e-18
-1.43982892e-18
-1.440163821e-18
-1.440523061e-18
-1.440907887e-18
-1.441319596e-18
-1.441759559e-18
-1.442229208e-18
-1.442730071e-18
-1.44326373e-18
-1.443831868e-18
-1.444436243e-18
-1.445078724e-18
-1.445761263e-18
-1.446485933e-18
-1.447254912e-18
-1.448070497e-18
-1.448935124e-18
-1.449851352e-18
-1.450821887e-18
-1.451849598e-18
-1.452937507e-18
-1.454088812e-18
-1.455306901e-18
-1.456595355e-18
-1.457957969e-18
-1.459398753e-18
-1.460921964e-18
-1.46253211e-18
-1.464233961e-18
-1.466032584e-18
-1.467933349e-18
-1.469941945e-18
-1.472064416e-18
-1.474307169e-18
-1.47667701e-18
-1.47918115e-18
-1.481827257e-18
-1.484623466e-18
-1.487578419e-18
-1.490701289e-18
-1.494001818e-18
-1.497490353e-18
-1.501177888e-18
-1.505076093e-18
-1.50919737e-18
-1.513554885e-18
-1.518162628e-18
-1.523035445e-18
-1.528189116e-18
-1.533640387e-18
-1.53940704e-18
-1.545507959e-18
-1.551963176e-18
-1.55879396e-18
-1.566022871e-18
-1.573673856e-18
-1.581772297e-18
-1.590345128e-18
-1.599420886e-18
-1.609029829e-18
-1.61920401e-18
-1.629977391e-18
-1.641385931e-18
-1.653467698e-18
-1.666262987e-18
-1.679814407e-18
-1.694167045e-18
-1.709368545e-18
-1.725469269e-18
-1.742522409e-18
-1.760584125e-18
-1.779713706e-18
-1.799973697e-18
-1.821430049e-18
-1.84415229e-18
-1.868213668e-18
-1.893691319e-18
-1.920666443e-18
-1.949224456e-18
-1.97945519e-18
-2.011453049e-18
-2.045317208e-18
-2.081151789e-18
-2.119066047e-18
-2.159174579e-18
-2.201597489e-18
-2.246460612e-18
-2.293895695e-18
-2.344040589e-18
-2.397039471e-18
-2.453043026e-18
-2.51220865e-18
-2.574700656e-18
-2.640690463e-18
-2.710356794e-18
-2.783885881e-18
-2.861471643e-18
-2.943315885e-18
-3.029628465e-18
-3.12062751e-18
-3.216539537e-18
-3.317599667e-18
-3.424051761e-18
-3.536148582e-18
-3.654151936e-18
-3.778332807e-18
-3.908971495e-18
-4.046357696e-18
-4.190790653e-18
-4.342579203e-18
-4.502041887e-18
-4.669506986e-18
-4.845312586e-18
-5.02980661e-18
-5.223346827e-18
-5.426300869e-18
-5.639046179e-18
-5.86197e-18
-6.095469333e-18
-6.339950821e-18
-6.595830692e-18
-6.863534639e-18
-7.143497648e-18
-7.436163889e-18
-7.741986504e-18
-8.061427446e-18
-8.394957196e-18
-8.743054593e-18
-9.106206498e-18
-9.484907574e-18
-9.879659949e-18
-1.029097288e-17
-1.071936242e-17
-1.116535107e-17
-1.162946737e-17
-1.211224549e-17
-1.261422489e-17
-1.313594977e-17
-1.367796872e-17
-1.424083426e-17
-1.482510232e-17
-1.54313318e-17
-1.606008414e-17
-1.671192275e-17
-1.738741264e-17
-1.80871198e-17
-1.881161089e-17
-1.956145271e-17
-2.033721168e-17
-2.113945355e-17
-2.196874288e-17
-2.282564271e-17
-2.371071421e-17
-2.462451628e-17
-2.556760541e-17
-2.654053536e-17
-2.754385692e-17
-2.85781179e-17
-2.964386307e-17
-3.074163401e-17
-3.187196937e-17
-3.303540502e-17
-3.423247418e-17
-3.546370794e-17
-3.672963567e-17
-3.803078562e-17
-3.93676856e-17
-4.0740864e-17
-4.215085055e-17
-4.359817776e-17
-4.508338204e-17
-4.660700538e-17
-4.8169597e-17
-4.977171529e-17
-5.141392999e-17
-5.309682449e-17
-5.482099863e-17
-5.658707153e-17
-5.839568468e-17
-6.02475056e-17
-6.214323163e-17
-6.408359398e-17
-6.606936228e-17
-6.810134959e-17
-7.018041737e-17
-7.230748176e-17
-7.448351894e-17
-7.670957243e-17
-7.898675996e-17
-8.131628094e-17
-8.369942487e-17
-8.613758008e-17
-8.86322428e-17
-9.118502775e-17
-9.379767803e-17
-9.647207729e-17
-9.92102612e-17
-1.020144307e-16
-1.048869657e-16
-1.078304398e-16
-1.10847635e-16
-1.139415593e-16
-1.171154631e-16
-1.203728585e-16
-1.23717538e-16
-1.271535961e-16
-1.306854504e-16
-1.343178656e-16
-1.380559772e-16
-1.419053181e-16
-1.458718457e-16
-1.499619704e-16
-1.541825871e-16
-1.585411067e-16
-1.630454902e-16
-1.677042848e-16
-1.725266613e-16
-1.775224549e-16
-1.827022062e-16
-1.880772065e-16
-1.936595441e-16
-1.994621538e-16
-2.054988687e-16
-2.117844755e-16
-2.18334772e-16
-2.251666279e-16
-2.322980493e-16
-2.397482471e-16
-2.475377071e-16
-2.556882666e-16
-2.642231943e-16
-2.731672727e-16
-2.825468888e-16
-2.923901273e-16
-3.027268691e-16
-3.135888964e-16
-3.250100045e-16
-3.370261175e-16
-3.496754107e-16
-3.629984407e-16
-3.770382785e-16
-3.91840654e-16
-4.074541133e-16
-4.239300983e-16
-4.413242341e-16
-4.596716948e-16
-4.790597334e-16
-4.99570786e-16
-5.213027151e-16
-5.442672536e-16
-5.685406933e-16
-5.942056699e-16
-6.213500951e-16
-6.50067469e-16
-6.804572471e-16
-7.126252322e-16
-7.466839467e-16
-7.827530899e-16
-8.209602241e-16
-8.61448139e-16
-9.044798483e-16
-9.500925394e-16
-9.984428162e-16
-1.049701863e-15
-1.104015655e-15
-1.161584314e-15
-1.222640732e-15
-1.287405028e-15
-1.356111713e-15
-1.429012201e-15
-1.506376081e-15
-1.588492918e-15
-1.67567448e-15
-1.768257379e-15
-1.866606252e-15
-1.97111762e-15
-2.082224551e-15
-2.20040241e-15
-2.326175953e-15
-2.460128115e-15
-2.602911013e-15
-2.755259744e-15
-2.918009751e-15
-3.092118809e-15
-3.278694875e-15
-3.479031528e-15
-3.694653093e-15
-3.927372288e-15
-4.179363895e-15
-4.453259104e-15
-4.752266439e-15
-5.080326871e-15
-5.442312994e-15
-5.844284868e-15
-6.293818894e-15
-6.800430666e-15
-7.376118941e-15
-8.036065469e-15
-8.799535697e-15
-9.691038044e-15
-1.074181627e-14
-1.199177083e-14
-1.34919325e-14
-1.530764754e-14
-1.752267864e-14
-2.024448545e-14
-2.361102338e-14
-2.779949771e-14
-3.303763394e-14
-3.961818793e-14
-4.791762532e-14
-5.84201673e-14
-7.174874176e-14
-8.870482016e-14
-1.103196866e-13
-1.379204147e-13
-1.732147634e-13
-2.184004063e-13
-2.763054559e-13
-3.505692304e-13
-4.458747615e-13
-5.682478258e-13
-7.254414791e-13
-9.274305026e-13
-1.187047085e-12
-1.520797998e-12
-1.949914952e-12
-2.501704502e-12
-3.211282703e-12
-4.123803911e-12
-5.297324087e-12
-6.806478761e-12
-8.74720679e-12
-1.124281642e-11
-1.445177397e-11
-1.857770288e-11
-2.388221847e-11
-3.070140021e-11
-3.946692901e-11
-5.073320658e-11
-6.521214407e-11
-8.381778181e-11
-1.077235079e-10
-1.384354222e-10
-1.778863824e-10
-2.285565433e-10
-2.93627821e-10
-3.771817968e-10
-4.844532199e-10
-6.221546708e-10
-7.988922702e-10
-1.025697846e-09
-1.316710039e-09
-1.690045824e-09
-2.168915407e-09
-2.783048111e-09
-3.570515502e-09
-4.580061826e-09
-5.874081976e-09
-7.53242588e-09
-9.657256947e-09
-1.237925471e-08
-1.586553057e-08
-2.0329726e-08
-2.60448899e-08
-3.335989285e-08
-4.272033988e-08
-5.469520244e-08
-7.001071488e-08
-8.959349301e-08
-1.14625351e-07
-1.466129423e-07
-1.874761715e-07
-2.396603443e-07
-3.062783074e-07
-3.912904228e-07
-4.997322031e-07
-6.380018941e-07
-8.142233328e-07
-1.038703138e-06
-1.324505914e-06
-1.688176788e-06
-2.15064753e-06
-2.738370992e-06
-3.484739021e-06
-4.431851686e-06
-5.632721323e-06
-7.154013759e-06
-9.079452164e-06
-1.151403944e-05
-1.458926756e-05
-1.84695756e-05
-2.3360269e-05
-2.951724144e-05
-3.7258836e-05
-4.698022888e-05
-5.91708421e-05
-7.443513754e-05
-9.35175848e-05
-0.0001173324713
-0.0001469997812
-0.0001838890106
-0.0002296740226
-0.000286404016
-0.0003565985202
-0.0004433776861
-0.000550641658
-0.0006833113989
-0.0008476328752
-0.001051520436
-0.001304869933
-0.001619709156
-0.002009989662
-0.002490785858
-0.003076681743
-0.003779196322
-0.004603155219
-0.005541843714
-0.006570347112
-0.007635521608
-0.008639637931
-0.009412598308
-0.009666655517
-0.0089271182
-0.006436970477
-0.001042134959
0.008926338541
0.02577110717
0.05262314596
0.09512615884
0.1599082764
0.2659141663
0.4234567121
0.6476297169
0.9277868841
1.189688177
1.3456279
1.328428957
1.153151684
0.8962954481
0.6290924616
0.4091237734
0.2403139851
0.118952569
0.04554885177
0.0008809620952
0.004867868312
-0.0003911395508
0.002507534731
0.006257168951
0.01416458433
0.0146634135
0.01221002389
0.007249086443
0.005063699281
-0.001701597924
-0.008139949844
-0.01396832204
-0.01918854363
-0.02367329023
-0.02732294154
-0.02828283786
-0.02849913949
-0.02683589433
-0.02406215766
-0.02063857208
-0.01709514655
-0.01378696283
-0.01090371797
-0.008460837186
-0.006405495549
-0.004800288388
-0.003566761835
-0.002629840032
-0.001929673802
-0.001416166477
-0.001041665346
-0.0007685215121
-0.0005691614983
-0.00041523358
-0.0003025649068
-0.0002226556837
-0.0001635438137
-0.0001200044629
-8.805440045e-05
-6.466896075e-05
-4.757692318e-05
-3.506042389e-05
-2.592531646e-05
-1.923290534e-05
-1.432070007e-05
-1.07065952e-05
-8.04010768e-06
-6.066492927e-06
-4.600509155e-06
-3.507327156e-06
-2.688678411e-06
-2.072825769e-06
-1.607279121e-06
-1.253553407e-06
-9.83355913e-07
-7.7582515e-07
-6.15528799e-07
-4.910100423e-07
-3.937305366e-07
-3.173004006e-07
-2.569162758e-07
-2.089503304e-07
-1.706489501e-07
-1.399112314e-07
-1.151257122e-07
-9.504960032e-08
-7.87191384e-08
-6.538282247e-08
-5.445144413e-08
-4.546055368e-08
-3.804212513e-08
-3.190306307e-08
-2.68088165e-08
-2.257082103e-08
-1.903682372e-08
-1.608338864e-08
-1.361006056e-08
-1.153479553e-08
-9.79036495e-09
-8.321511084e-09
-7.08268623e-09
-6.036247293e-09
-5.151007677e-09
-4.401070922e-09
-3.764887594e-09
-3.224489893e-09
-2.764868395e-09
-2.373462899e-09
-2.039745297e-09
-1.754876876e-09
-1.511426082e-09
-1.303135515e-09
-1.124729156e-09
-9.717525496e-10
-8.40440058e-10
-7.276043945e-10
-6.305445511e-10
-5.469689254e-10
-4.74931045e-10
-4.127757435e-10
-3.590940269e-10
-3.126851766e-10
-2.725248868e-10
-2.377384424e-10
-2.075781133e-10
-1.814040785e-10
-1.586683122e-10
-1.389009557e-10
-1.216987786e-10
-1.067154013e-10
-9.365299742e-11
-8.225524881e-11
-7.230135545e-11
-6.360093846e-11
-5.598969877e-11
-4.932571576e-11
-4.348628862e-11
-3.836523843e-11
-3.387060159e-11
-2.992265624e-11
-2.64522318e-11
-2.339925998e-11
-2.07115317e-11
-1.834362958e-11
-1.625601051e-11
-1.441421652e-11
-1.278819541e-11
-1.135171506e-11
-1.008186039e-11
-8.958595079e-12
-7.964386973e-12
-7.083882531e-12
-6.303625329e-12
-5.611812361e-12
-4.998082783e-12
-4.453334792e-12
-3.969566533e-12
-3.539737998e-12
-3.157650861e-12
-2.817844012e-12
-2.515502469e-12
-2.246378061e-12
-2.006720156e-12
-1.793215245e-12
-1.602934172e-12
-1.433285922e-12
-1.281977208e-12
-1.146977057e-12
-1.026485809e-12
-9.189078863e-13
-8.228279588e-13
-7.369898288e-13
-6.602780601e-13
-5.91701719e-13
-5.303800626e-13
-4.755299447e-13
-4.264546975e-13
-3.825343129e-13
-3.432168144e-13
-3.080105874e-13
-2.764776167e-13
-2.482275038e-13
-2.229121593e-13
-2.002211714e-13
-1.798775443e-13
-1.616341036e-13
-1.452701744e-13
-1.305887065e-13
-1.174136805e-13
-1.055878471e-13
-9.497067061e-14
-8.543645556e-14
-7.687286968e-14
-6.917945275e-14
-6.226629824e-14
-5.605296106e-14
-5.046742379e-14
-4.544522552e-14
-4.092861477e-14
-3.686589376e-14
-3.321073897e-14
-2.992162942e-14
-2.696135834e-14
-2.429655692e-14
-2.18973093e-14
-1.973678355e-14
-1.779088625e-14
-1.603801927e-14
-1.445878781e-14
-1.30357764e-14
-1.175335191e-14
-1.059745918e-14
-9.555490889e-15
-8.616090407e-15
-7.769077729e-15
-7.005281099e-15
-6.316454252e-15
-5.695186144e-15
-5.134811215e-15
-4.629312943e-15
-4.173290317e-15
-3.761894774e-15
-3.390738426e-15
-3.055867998e-15
-2.753733726e-15
-2.481134586e-15
-2.235180965e-15
-2.013269776e-15
-1.813053217e-15
-1.632423093e-15
-1.469466657e-15
-1.322461465e-15
-1.189856195e-15
-1.070249502e-15
-9.623869514e-16
-8.651195451e-16
-7.774187299e-16
-6.983514821e-16
-6.270801547e-16
-5.628426652e-16
-5.049567476e-16
-4.528056484e-16
-4.058360018e-16
-3.635401907e-16
-3.254625386e-16
-2.911894075e-16
-2.603470845e-16
-2.326095428e-16
-2.07664842e-16
-1.852417983e-16
-1.65091504e-16
-1.469927707e-16
-1.307444248e-16
-1.161617153e-16
-1.030825485e-16
-9.135623124e-17
-8.084825909e-17
-7.144016381e-17
-6.302120563e-17
-5.54920086e-17
-4.87608112e-17
-4.274994401e-17
-3.738551887e-17
-3.260482821e-17
-2.834645044e-17
-2.455737678e-17
-2.119050697e-17
-1.820248457e-17
-1.555185123e-17
-1.320860181e-17
-1.113827048e-17
-9.310833225e-18
-7.702175616e-18
-6.289648024e-18
-5.051553438e-18
-3.967021322e-18
-3.018743422e-18
-2.19389501e-18
-1.478724303e-18
-8.605108706e-19
-3.316753547e-19
1.208637045e-19
5.046053593e-19
8.288074386e-19
1.100459797e-18
1.324489871e-18
1.508472998e-18
1.653772174e-18
1.767465426e-18
1.853866581e-18
1.917520196e-18
1.960352408e-18
1.981943602e-18
1.989037576e-18
1.986023113e-18
1.970265353e-18
1.945953085e-18
1.913510174e-18
1.875649542e-18
1.832242849e-18
1.783747938e-18
1.730597106e-18
1.67478958e-18
1.617190109e-18
1.558169698e-18
1.497690701e-18
1.437454908e-18
1.380059145e-18
1.322226031e-18
1.264761664e-18
1.209060132e-18
1.152948361e-18
1.098894449e-18
1.047180466e-18
9.970672096e-19
9.477617861e-19
8.993731311e-19
8.523907649e-19
8.075610892e-19
7.637084608e-19
7.226096306e-19
6.82831353e-19
6.445518495e-19
6.076265723e-19
5.732359894e-19
5.401838336e-19
5.090209063e-19
4.790355309e-19
4.504706624e-19
4.234856817e-19
3.972424547e-19
3.735423742e-19
3.508540123e-19
3.291199805e-19
3.090701889e-19
2.893145052e-19
2.7149838e-19
2.548357342e-19
2.386453516e-19
2.231573474e-19
2.088448023e-19
1.947260795e-19
1.823539225e-19
1.709622199e-19
1.594456295e-19
1.483071636e-19
1.380106927e-19
1.283055913e-19
1.186296225e-19
1.108230367e-19
1.029942337e-19
9.572212177e-20
8.884021412e-20
8.28779636e-20
7.720243173e-20
7.168302322e-20
6.661704195e-20
6.121133475e-20
5.556003029e-20
5.11256201e-20
4.78662721e-20
4.373478402e-20
4.065686585e-20
3.782238528e-20
3.508714861e-20
3.293543954e-20
3.053692835e-20
2.762405426e-20
2.565583142e-20
2.350423906e-20
2.13833293e-20
2.014698968e-20
1.829336308e-20
1.65978803e-20
1.490842361e-20
1.397421253e-20
1.287782465e-20
1.233083582e-20
1.141824286e-20
1.032440658e-20
9.065891992e-21
7.671979885e-21
6.925050433e-21
7.07069997e-21
6.944209917e-21
7.020382382e-21
6.71909028e-21
6.25400245e-21
5.869232103e-21
5.201799438e-21
4.2711355e-21
3.499528212e-21
2.73098394e-21
2.526876488e-21
2.369357619e-21
2.207991199e-21
2.415079052e-21
2.41032729e-21
2.334392084e-21
2.173080868e-21
1.944476324e-21
1.706550067e-21
1.60058969e-21
1.463762371e-21
2.366901731e-21
3.046030548e-21
2.815636886e-21
2.584653423e-21
2.210918033e-21
1.949435341e-21
2.062047666e-21
2.542400791e-21
2.558459732e-21
2.088582779e-21
1.727173613e-21
1.350910753e-21
1.171727667e-21
1.521506457e-21
1.535310476e-21
1.63596093e-21
1.327553197e-21
1.073853021e-21
1.003682536e-21
9.3987477e-22
1.059433905e-21
9.661197841e-22
1.069240681e-21
1.185639429e-21
1.069479639e-21
1.27439293e-21
1.747197599e-21
1.996053835e-21
2.227440833e-21
2.255853295e-21
2.167780708e-21
2.247848389e-21
2.250546592e-21
2.316939874e-21
2.285795493e-21
1.994822792e-21
1.91038563e-21
1.598680716e-21
1.537198816e-21
1.417347464e-21
1.451439294e-21
1.329613165e-21
1.461577521e-21
1.838919629e-21
1.81245257e-21
1.830971482e-21
1.865092724e-21
1.780387647e-21
1.64317237e-21
1.82193497e-21
1.77803886e-21
1.485637577e-21
1.391862322e-21
1.067317595e-21
1.010995564e-21
1.125917685e-21
1.568131281e-21
1.743114789e-21
1.853024039e-21
1.924018856e-21
2.066812808e-21
2.03203627e-21
1.857865735e-21
1.630708876e-21
1.583987755e-21
1.543131986e-21
1.608600932e-21
1.650566339e-21
1.556481164e-21
1.37848111e-21
1.130291398e-21
1.360633542e-21
1.650407207e-21
1.966781272e-21
1.978427798e-21
1.764325987e-21
1.496060404e-21
1.551668526e-21
1.72121009e-21
1.99653283e-21
1.961267134e-21
1.820097768e-21
1.911056979e-21
1.949857192e-21
1.730235479e-21
1.450634292e-21
1.315796104e-21
1.150536102e-21
1.076414207e-21
1.125441221e-21
1.177632898e-21
1.353897687e-21
1.592880456e-21
1.514971637e-21
1.675139644e-21
1.715764839e-21
1.664265086e-21
1.4986023e-21
1.382773465e-21
1.480165862e-21
1.33308994e-21
1.213498207e-21
1.124137702e-21
1.058110766e-21
8.845313353e-22
7.287714766e-22
8.623808139e-22
9.190358397e-22
9.213466028e-22
9.914058745e-22
1.043119539e-21
1.121184752e-21
1.126922859e-21
1.05599956e-21
1.005129063e-21
9.462687325e-22
8.349647538e-22
8.408254263e-22
1.046721751e-21
1.245862876e-21
1.420338578e-21
1.518701096e-21
1.436294778e-21
1.229038791e-21
1.050664247e-21
1.0699517e-21
8.432332566e-22
8.17428377e-22
7.910467277e-22
7.792363637e-22
8.419049043e-22
8.055901502e-22
7.310256312e-22
6.989445323e-22
7.280251935e-22
7.11482344e-22
6.076681354e-22
5.695964771e-22
5.338686542e-22
6.238204423e-22
7.194438909e-22
7.007620838e-22
6.832623908e-22
6.334485095e-22
5.328870627e-22
4.590413581e-22
5.41540121e-22
6.071972075e-22
5.014695658e-22
5.933663077e-22
6.78685264e-22
7.581795794e-22
-1.404326102e-23
5.843957765e-22
1.067606052e-23
8.970274359e-23
2.977413726e-22
-1.16047547e-22
2.785426904e-22
4.514048322e-22
-1.53386349e-22
-2.886042495e-22
4.701409262e-22
-1.448388614e-22
-1.188670407e-22
-1.233805838e-22
9.807878702e-23
6.912241628e-23
-6.341467481e-23
6.782255138e-23
5.542611086e-23
1.0356107e-22
-3.776850997e-23
2.73770857e-24
-6.871027783e-23
3.490291355e-23
-2.956622004e-23
6.09959692e-24
4.967253037e-24
-4.295231474e-24
-4.727500843e-26
2.986099374e-24
-4.523689408e-26
4.538764921e-24
-2.152455617e-25
5.805483266e-24
9.658688626e-24
8.959012825e-24
-1.888085002e-24
8.686985013e-25
1.459513548e-24
1.131451157e-25
-8.759729311e-25
1.73570505e-24
9.798547552e-25
2.596849222e-25
2.307946173e-24
-6.424350977e-24
-8.327009133e-24
1.280005874e-23
-1.848099822e-23
-4.231583622e-24
-1.152885425e-24
-9.02009352e-25
-6.589810396e-25
8.589960226e-25
5.34962456e-24
-6.32907866e-24
4.773160456e-25
1.255438374e-23
7.573185728e-24
-8.549698432e-24
-1.159886819e-23
-1.209179428e-24
3.11428535e-24
-8.050160447e-24
-2.203802784e-24
-1.482373269e-24
1.043717333e-24
-2.657913415e-26
1.034702728e-26
-5.382040363e-25
-8.29490846e-26
1.050588243e-25
2.205045801e-24
1.242841134e-24
-8.665400076e-25
-1.35137266e-24
4.98586094e-24
-2.426687531e-24
2.831148122e-24
-4.673078148e-24
2.579072104e-24
6.710088951e-26
-9.028148282e-25
6.153390107e-25
1.275324104e-24
-1.045034602e-24
-1.345937884e-25
-4.593045274e-25
-4.783715425e-25
-8.206353765e-25
1.39172783e-24
-1.103528189e-24
1.361993231e-25
-8.009733001e-25
1.330502261e-25
1.10044865e-26
-2.537331089e-25
-1.91744032e-25
-2.942332527e-26
1.077405426e-25
-1.547830465e-26
7.608851803e-27
7.122874457e-26
-5.245472633e-26
-9.273338733e-26
-2.045178224e-25
-9.049300699e-26
-1.729091891e-25
1.94912128e-25
5.548472394e-27
3.183855809e-26
3.889656385e-26
-3.936354463e-26
5.554559445e-26
-1.325416087e-25
-3.128062231e-26
-1.26808377e-26
-7.364702164e-27
4.17697542e-26
-4.795144134e-27
8.326245313e-27
-9.942191297e-27
-2.70097979e-26
3.94976273e-27
-4.490638454e-26
5.297606808e-27
-3.029780308e-26
2.148758631e-26
-4.224516689e-26
-2.231944253e-26
-1.401596157e-27
-2.490751883e-26
4.977002268e-26
4.534660674e-27
-1.25730855e-26
1.716094254e-26
-1.356936126e-25
-1.02213697e-26
1.448968884e-25
2.256252494e-26
-4.910679103e-26
4.381997967e-28
-1.372593636e-26
4.506876397e-26
4.919680273e-26
-1.628544124e-25
-1.32660054e-25
2.600241739e-25
1.177462895e-25
1.130778374e-25
1.006416944e-25
-5.524679317e-26
-3.749955943e-25
-2.282573523e-25
-1.557648142e-25
2.385881031e-26
-4.081848132e-26
-8.688944634e-29
2.702804706e-25
4.606132561e-26
2.579951661e-25
-4.958743484e-26
2.311886049e-25
2.692935295e-25
1.952684255e-26
-6.227756806e-26
-2.032945306e-26
4.835321795e-26
4.481638807e-26
2.221669486e-25
-8.942072038e-26
-2.572981333e-26
-1.64343134e-26
-5.338069414e-26
-8.514721992e-26
-5.340913136e-26
8.744381931e-26
9.169100622e-26
1.885303287e-25
1.462064636e-25
1.426125356e-25
1.104419642e-25
1.62829105e-25
1.240644595e-25
3.061089724e-25
1.680656842e-26
7.867705487e-26
-6.690930926e-26
1.609896432e-25
-4.3096555e-26
1.519369377e-25
1.859867579e-25
-3.457736805e-26
1.971685142e-25
1.250241e-25
1.104558501e-25
2.714862827e-26
5.849823337e-26
1.004628602e-25
-1.694578375e-25
-5.974091636e-26
-1.057762639e-25
1.718192203e-26
-5.820296984e-26
-8.976299078e-26
-8.457444729e-26
-6.263502473e-26
7.392355994e-26
3.811413709e-26
-4.856700813e-26
8.551451218e-26
9.357880991e-26
-1.183689465e-26
-2.473993794e-26
-3.417572174e-26
1.501638087e-25
-4.018570689e-26
4.212078448e-26
-3.819912948e-26
-2.252329226e-27
2.004329477e-26
1.135897567e-26
-2.368715983e-26
6.838035881e-28
-1.920533917e-26
8.734946673e-27
1.567812823e-26
-4.718652009e-27
-1.021789234e-26
-2.209626879e-26
-3.384173458e-26
-4.181663972e-26
2.597058798e-27
3.043530106e-26
-5.563531801e-26
-1.41930186e-26
-1.855855903e-26
-1.667145999e-25
-1.240283747e-25
-1.875180676e-26
-2.833310013e-25
-1.993565375e-27
-3.63796875e-26
-1.808312503e-25
-4.941012222e-26
-2.821586116e-26
-3.361431316e-25
-1.366448488e-25
3.157516934e-26
-1.196574155e-26
)
;

boundaryField
{
    inlet
    {
        type            calculated;
        value           uniform 0;
    }
    outlet
    {
        type            calculated;
        value           uniform -1.196574173e-26;
    }
    wall
    {
        type            empty;
    }
}


// ************************************************************************* //
