/*--------------------------------*- C++ -*----------------------------------*\
  =========                 |
  \\      /  F ield         | OpenFOAM: The Open Source CFD Toolbox
   \\    /   O peration     | Website:  https://openfoam.org
    \\  /    A nd           | Version:  7
     \\/     M anipulation  |
\*---------------------------------------------------------------------------*/
FoamFile
{
    version     2.0;
    format      ascii;
    class       volScalarField;
    location    "0.000558243009";
    object      ddt0(rho);
}
// * * * * * * * * * * * * * * * * * * * * * * * * * * * * * * * * * * * * * //

dimensions      [1 -3 -1 0 0 0 0];

internalField   nonuniform List<scalar> 
1500
(
-523.0572176
-2130.357393
-3372.542676
-3470.452795
-2667.970179
-1635.779962
-828.3501184
-357.8511412
-145.826931
-81.97661779
-86.06169334
-115.874257
-151.7826283
-186.1633593
-215.8911298
-239.7638947
-257.2682139
-268.1943165
-272.5230895
-270.3740495
-261.9840333
-247.6937414
-227.9353841
-203.2203549
-174.1267901
-141.2875599
-105.3793105
-67.1130113
-27.22607588
13.52428906
54.3671959
94.5245624
133.2189153
169.6833234
203.1738887
232.9848873
258.4662283
279.0422348
294.2307825
303.6613318
307.0904011
304.4131381
295.6699059
281.0471724
260.8724575
235.6035594
205.8127202
172.1667594
135.404434
96.31238728
55.7010404
14.38159209
-26.85492132
-67.25584446
-106.1220428
-142.8198868
-176.7902022
-207.5544676
-234.7186069
-257.9747173
-277.1010254
-291.9602659
-302.4966247
-308.7312585
-310.7564279
-308.7282314
-302.8580256
-293.4026839
-280.6539731
-264.9274504
-246.5513759
-225.8562016
-203.1652034
-178.7867802
-153.0088364
-126.0954925
-98.28621393
-69.79722103
-40.82487697
-11.55060792
17.85322245
47.21707861
76.36826864
105.1257594
133.2962279
160.6716715
187.028756
212.1299439
235.7263197
257.5619135
277.3792459
294.9257593
309.9607655
322.2625253
331.6350989
337.9145998
340.9745694
340.7301974
337.1412173
330.2133558
319.9983038
306.5922748
290.1332738
270.7972932
248.7936988
224.3601004
197.7570291
169.2627025
139.1681289
107.7727388
75.3806476
42.29756256
8.828288209
-24.7253132
-58.06606102
-90.90309527
-122.9535854
-153.9446595
-183.6156368
-211.7205807
-238.0311226
-262.3394295
-284.4611668
-304.2382526
-321.5412091
-336.2709439
-348.359836
-357.7720543
-364.5031157
-368.5787449
-370.0531552
-369.0069197
-365.544605
-359.7923468
-351.895509
-342.0165355
-330.3330201
-317.0359884
-302.3282816
-286.4229221
-269.5412677
-251.9107748
-233.7622014
-215.3260947
-196.8285259
-178.4860606
-160.500091
-143.0507271
-126.2905678
-110.3387062
-95.27540996
-81.13791297
-67.91775664
-55.56001936
-43.96474014
-32.99063979
-22.46118401
-12.17276187
-1.904710006
8.569358969
19.46948284
30.99726668
43.32451444
56.58331888
70.85826725
86.18135327
102.5299385
119.8279838
137.9504866
156.7308424
175.970619
195.4510237
214.9451895
234.2303576
253.0989912
271.3679313
288.8849228
305.5320015
321.225567
335.9132451
349.5679824
362.1800465
373.747825
384.2684274
393.7290886
402.1002749
409.3312254
415.3483268
420.056519
423.3435362
425.0865818
425.1608066
423.4488475
419.8506599
414.2929335
406.7374505
397.1879054
385.6948221
372.3582876
357.3282194
340.8020197
323.0192892
304.2534134
284.7998895
264.9613755
245.0299337
225.26722
205.8841451
187.0219944
168.7376222
150.9956381
133.6704721
116.5606826
99.41690687
81.98317361
64.04925126
45.50944353
26.42090074
7.052515945
-12.0855666
-30.24192609
-46.46192812
-59.66949862
-68.79355102
-72.93406603
-71.55604002
-64.69255311
-53.13203308
-38.56038897
-23.62691545
-11.9046988
-7.722043574
-15.85166544
-41.05822357
-87.52196943
-158.1750111
-254.0053003
-373.3999968
-511.6117558
-660.436918
-808.1912376
-940.0565019
-1038.846756
-1086.21593
-1064.267553
-957.5463235
-755.1407065
-453.2259272
-56.07808369
422.1245861
701.8896648
737.3574993
772.7081239
807.9485635
843.199478
878.5164028
913.897107
949.3466325
984.8567486
1020.418409
1056.020621
1091.649632
1127.293029
1162.935391
1198.562124
1234.159812
1269.713163
1305.207361
1340.627325
1375.958658
1411.186122
1446.292889
1481.264143
1516.083424
1550.736194
1585.203305
1619.469881
1653.51801
1687.332349
1720.893587
1754.185962
1787.190646
1819.890404
1852.267737
1884.302906
1915.978601
1947.276559
1978.176972
2008.661592
2038.711738
2068.307816
2097.430387
2126.059553
2154.176787
2181.761399
2208.793177
2235.253163
2261.120671
2286.374745
2310.996111
2334.963452
2358.256766
2380.8544
2402.736681
2423.882505
2444.270877
2463.880536
2482.690325
2500.679613
2517.82756
2534.111893
2549.512604
2564.007353
2577.57583
2590.19584
2601.847534
2612.508754
2622.158159
2630.775536
2638.338428
2644.826525
2650.218617
2654.494589
2657.631872
2659.611455
2660.410721
2660.010655
2658.389941
2655.528846
2651.406455
2646.002968
2639.29865
2631.27241
2621.907124
2611.180898
2599.076273
2585.572753
2570.65198
2554.296365
2536.486563
2517.204571
2496.432979
2474.15368
2450.3497
2425.004128
2398.099481
2369.620481
2339.550469
2307.874015
2274.575594
2239.639926
2203.053531
2164.800477
2124.868824
2083.243837
2039.912334
1994.863238
1948.083609
1899.561643
1849.286553
1797.247441
1743.43386
1687.837036
1630.447065
1571.255875
1510.254855
1447.437998
1382.795962
1316.324409
1248.0169
1177.868754
1105.875143
1032.032267
956.337323
878.7866528
799.3802362
718.1151779
634.9924315
550.0109914
463.1725972
374.4791417
283.9327298
191.5370008
97.29466539
1.21145444
-96.70620532
-196.4534015
-298.0220183
-401.4040086
-506.5919201
-613.5745119
-722.3417291
-832.8815443
-945.1830252
-1059.231497
-1175.014212
-1292.514508
-1411.717199
-1532.605996
-1655.162271
-1779.367816
-1905.201863
-2032.645011
-2161.674654
-2292.268875
-2424.40339
-2558.053439
-2693.194321
-2829.798292
-2967.83804
-3107.285044
-3248.108841
-3390.280044
-3533.765077
-3678.531532
-3824.546723
-3971.77388
-4120.178011
-4269.72125
-4420.36563
-4572.072538
-4724.800073
-4878.507952
-5033.153539
-5188.692715
-5345.080521
-5502.272162
-5660.219717
-5818.875213
-5978.190673
-6138.114627
-6298.596159
-6459.583374
-6621.022746
-6782.858859
-6945.037466
-7107.50066
-7270.191771
-7433.051146
-7596.0191
-7759.035535
-7922.037517
-8084.962814
-8247.74661
-8410.32428
-8572.630172
-8734.596645
-8896.155822
-9057.238962
-9217.776121
-9377.69587
-9536.926979
-9695.395499
-9853.029764
-10009.75317
-10165.4908
-10320.16696
-10473.70377
-10626.02309
-10777.04713
-10926.69445
-11074.88691
-11221.5414
-11366.57748
-11509.91168
-11651.4602
-11791.14064
-11928.8678
-12064.5566
-12198.12068
-12329.47445
-12458.53136
-12585.20375
-12709.40393
-12831.04402
-12950.03564
-13066.28931
-13179.71644
-13290.22801
-13397.73299
-13502.14213
-13603.36603
-13701.31374
-13795.89596
-13887.02144
-13974.6003
-14058.54231
-14138.75723
-14215.15561
-14287.6476
-14356.14323
-14420.5536
-14480.79022
-14536.76426
-14588.38767
-14635.57397
-14678.23587
-14716.28634
-14749.6418
-14778.21591
-14801.9252
-14820.68765
-14834.42083
-14843.04344
-14846.4762
-14844.64107
-14837.4592
-14824.856
-14806.75668
-14783.08721
-14753.77863
-14718.75857
-14677.95657
-14598.73807
-14515.52983
-14452.4633
-14450.37897
-14427.96245
-14384.89058
-14320.81617
-14235.30426
-14127.96509
-13998.38427
-13846.12785
-13670.76073
-13471.87911
-13248.95277
-13009.53237
-12857.47938
-12700.13085
-12538.05506
-12371.88635
-12178.5453
-11962.36422
-11738.63951
-11507.28807
-11268.22556
-11021.37168
-10766.65072
-10503.98698
-10233.31068
-9954.554728
-9667.652555
-9372.54556
-9069.174087
-8757.483356
-8437.423694
-8108.946642
-7772.007585
-7426.566941
-7072.586601
-6710.034184
-6338.878408
-5959.094914
-5570.659821
-5173.555387
-4767.766541
-4353.281865
-3930.095045
-3498.201824
-3057.60388
-2608.305618
-2150.316357
-1683.64784
-1208.318289
-724.3480277
-231.7627818
269.4076274
779.130207
1297.365116
1824.071565
2359.20184
2902.70511
3454.524522
4014.601813
4582.870916
5159.263348
5743.704758
6336.117907
6936.419919
7544.523574
8160.336857
8783.763508
9414.703165
10053.04991
10698.69452
11351.52276
12011.41564
12678.25148
13351.90076
14032.23417
14719.11503
15412.40407
16111.95826
16817.62986
17529.26825
18246.71933
18969.82582
19698.42758
20432.36152
21171.46257
21915.56371
22664.49563
23418.08855
24176.17251
24938.57658
25705.13117
26475.66764
27250.01986
28028.02317
28809.52051
29594.35655
30382.38456
31173.46472
31967.46837
32764.27576
33563.7828
34365.90088
35170.55757
35977.70357
36787.31287
37599.38617
38413.95692
39231.09236
40050.9028
40873.54021
41699.21166
42528.17831
43360.77002
44197.38569
45038.50617
45884.70355
46736.65001
47595.12744
48461.04561
49335.44679
50219.52551
51114.64351
52022.34141
52944.36085
53882.65702
54839.42076
55817.09517
56818.39072
57846.30679
58904.14652
59995.52613
61124.38999
62295.01177
63511.99413
64780.25536
66105.00885
67491.72301
68946.06802
70473.83112
72080.81341
73772.69034
75554.57737
77431.77657
79408.0977
81486.43365
83668.15552
85952.6559
88337.07537
90814.85298
93376.39122
96007.61329
98689.53932
101397.7037
104101.6659
106764.6582
109343.4459
111788.4547
114044.2263
116050.2545
117742.2309
119053.6933
119918.0823
120271.0397
120052.9466
119211.4695
117703.9737
115499.6616
112581.0136
108945.0124
104603.3087
99581.87095
93919.87503
87668.38163
80888.11692
73647.9536
66023.21832
58094.81956
49948.57499
41673.07559
33353.96856
25062.03313
16405.77598
7934.801079
-3122.03658
-12240.21862
-18718.34063
-16303.89335
-27633.10574
-36129.93636
-43249.87908
-49695.9964
-55781.95564
-61496.44202
-67473.76347
-73576.34628
-79746.44227
-84775.54436
-93370.74832
-79568.87579
-87490.39713
-94643.31053
-100787.3021
-93954.87309
-98122.83411
-101699.6232
-104357.613
-93415.76634
-93775.47346
-92807.82994
-90651.30603
-87533.84161
-83639.72576
-79097.21517
-71265.33865
-66239.28385
-60681.5901
-55999.1522
-51765.4637
-47978.59217
-44605.4854
-41560.16563
-38461.02476
-34335.61654
-30587.42848
-27124.9057
-23842.86926
-20935.2865
-18735.65036
-17214.64388
-16262.37852
-15676.67685
-13891.06464
-12303.56405
-11584.13576
-10762.0776
-9906.231887
-9079.248167
-8315.005757
-7625.767965
-6987.412553
-6438.256022
-5945.93233
-5501.043911
-5096.472261
-4725.852782
-4383.925499
-4066.432363
-3769.962239
-3491.79003
-3229.759075
-2982.070979
-2747.262602
-2524.120161
-2311.616992
-2108.890054
-1915.121801
-1729.651968
-1551.872807
-1381.221807
-1217.202461
-1059.357503
-907.2680295
-760.5493069
-618.8480608
-481.8388198
-349.2215546
-220.719383
-96.07639108
24.94390056
142.560273
256.9755533
368.3775268
476.9404362
582.8259401
686.1842053
787.1547797
885.8673233
982.4424089
1076.992229
1169.621153
1260.426177
1349.497711
1436.919643
1522.77016
1607.121839
1690.042082
1771.59359
1851.834454
1930.818518
2008.595688
2085.212057
2160.710349
2235.129805
2308.50679
2380.874493
2452.263535
2522.701848
2592.215119
2660.82649
2728.557208
2795.426262
2861.450954
2926.646714
2991.027236
3054.604776
3117.390018
3179.392259
3240.619585
3301.078782
3360.775479
3419.714405
3477.899091
3535.332276
3592.015799
3647.950587
3703.137047
3757.574642
3811.262336
3864.198452
3916.380772
3967.80655
4018.472529
4068.375096
4117.510169
4165.873391
4213.482069
4260.287543
4306.310377
4351.536296
4395.96397
4439.587002
4482.399492
4524.39496
4565.567171
4605.909347
4645.414846
4684.07692
4721.888786
4758.843481
4794.934213
4830.153995
4864.495883
4897.952888
4930.518232
4962.184894
4992.946038
5022.794911
5051.724661
5079.728618
5106.80018
5132.932778
5158.119906
5182.355252
5205.632412
5227.945372
5249.287939
5269.654193
5289.038317
5307.434533
5324.83727
5341.241048
5356.640685
5371.030788
5384.406371
5396.762589
5408.094661
5418.397949
5427.668046
5435.900635
5443.091503
5449.236699
5454.332486
5458.375071
5461.360978
5463.28692
5464.149605
5463.946159
5462.673632
5460.329368
5456.910822
5452.415731
5446.841878
5440.18717
5432.449917
5423.628298
5413.720845
5402.726263
5390.643401
5377.471142
5363.208755
5347.855581
5331.411002
5313.87476
5295.246741
5275.526747
5254.715148
5232.812103
5209.818183
5185.733965
5160.560265
5134.298104
5106.948536
5078.512815
5048.992358
5018.388904
4986.703972
4953.939595
4920.097758
4885.180637
4849.190651
4812.13015
4774.001872
4734.808514
4694.553082
4653.238561
4610.868176
4567.445321
4522.973343
4477.455944
4430.896913
4383.30002
4334.669374
4285.009016
4234.323314
4182.616613
4129.893462
4076.158555
4021.416611
3965.672483
3908.9313
3851.198166
3792.478259
3732.777053
3672.099975
3610.452684
3547.840842
3484.270271
3419.746978
3354.27694
3287.866345
3220.521339
3152.248473
3083.054101
3012.944777
2941.92728
2870.008263
2797.194618
2723.493351
2648.911503
2573.456241
2497.13473
2419.954463
2341.922774
2263.047174
2183.335312
2102.794912
2021.43378
1939.259633
1856.280621
1772.504708
1687.939999
1602.594728
1516.477207
1429.5958
1341.958897
1253.575071
1164.45285
1074.60108
984.0283403
892.7435313
800.7556296
708.0734586
614.7061545
520.6628407
425.9527138
330.5849488
234.5689499
137.9140753
40.62980394
-57.27434639
-155.7887887
-254.9038361
-354.6098218
-454.8969138
-555.7552988
-657.1750413
-759.1462261
-861.6587354
-964.7025767
-1068.26748
-1172.343332
-1276.919855
-1381.98673
-1487.533517
-1593.549919
-1700.025246
-1806.949134
-1914.310908
-2022.099876
-2130.305422
-2238.916752
-2347.923029
-2457.313399
-2567.07701
-2677.202838
-2787.6799
-2898.497164
-3009.643486
-3121.107785
-3232.878704
-3344.945169
-3457.295841
-3569.919351
-3682.804326
-3795.939385
-3909.313035
-4022.913833
-4136.730143
-4250.750408
-4364.963036
-4479.35643
-4593.918604
-4708.638172
-4823.503104
-4938.501731
-5053.622146
-5168.852467
-5284.180755
-5399.59514
-5515.083548
-5630.634042
-5746.234509
-5861.872952
-5977.537234
-6093.215179
-6208.894696
-6324.563605
-6440.209668
-6555.820658
-6671.384414
-6786.888452
-6902.320732
-7017.668792
-7132.920303
-7248.083376
-7363.104381
-7477.9918
-7592.733193
-7707.320409
-7821.732546
-7935.961643
-8049.994873
-8163.820041
-8277.424683
-8390.796345
-8503.922502
-8616.790836
-8729.38881
-8841.704044
-8953.724052
-9065.436413
-9176.828632
-9287.888382
-9398.603199
-9508.96076
-9618.948561
-9728.5543
-9837.765631
-9946.570246
-10054.95578
-10162.91
-10270.42058
-10377.47541
-10484.0622
-10590.16877
-10695.78303
-10800.8929
-10905.48625
-11009.55116
-11113.07557
-11216.04766
-11318.45541
-11420.28714
-11521.53095
-11622.17523
-11722.20825
-11821.61841
-11920.39425
-12018.52424
-12115.99694
-12212.80119
-12308.92554
-12404.35893
-12499.09024
-12593.10846
-12686.40268
-12778.96207
-12870.77584
-12961.8334
-13052.12419
-13141.63772
-13230.36374
-13318.29184
-13405.41205
-13491.71438
-13577.1889
-13661.82574
-13745.61536
-13828.54822
-13910.61496
-13991.80625
-14072.11309
-14151.52639
-14230.03732
-14307.63737
-14384.31776
-14460.07032
-14534.88671
-14608.75898
-14681.67919
-14753.63955
-14824.63261
-14894.65104
-14963.68752
-15031.73511
-15098.78703
-15164.83666
-15229.87747
-15293.90332
-15356.90816
-15418.88613
-15479.83166
-15539.73936
-15598.60395
-15656.42057
-15713.18444
-15768.89102
-15823.53609
-15877.11546
-15929.62549
-15981.0625
-16031.42315
-16080.70446
-16128.90347
-16176.01772
-16222.04478
-16266.9827
-16310.82956
-16353.58393
-16395.24453
-16435.81038
-16475.2807
-16513.6551
-16550.93347
-16587.11584
-16622.2027
-16656.19479
-16689.09301
-16720.8986
-16751.61335
-16781.23894
-16809.77764
-16837.23185
-16863.60452
-16888.89852
-16913.11734
-16936.26475
-16958.34462
-16979.3614
-16999.31951
-17018.22414
-17036.08034
-17052.89372
-17068.67019
-17083.4159
-17097.13732
-17109.84124
-17121.53479
-17132.22544
-17141.92083
-17150.62906
-17158.35839
-17165.11753
-17170.91538
-17175.76119
-17179.66451
-17182.63512
-17184.68321
-17185.81904
-17186.05352
-17185.39739
-17183.8621
-17181.45889
-17178.19978
-17174.09665
-17169.16182
-17163.40786
-17156.84758
-17149.49388
-17141.36021
-17132.4599
-17122.80692
-17112.41506
-17101.29881
-17089.47249
-17076.95109
-17063.7287
-17049.86227
-17035.34698
-17020.19904
-17004.43481
-16988.07125
-16971.12095
-16953.6097
-16935.55006
-16916.95862
-16897.85021
-16878.23789
-16858.1304
-16837.53015
-16816.43302
-16794.81592
-16772.65018
-16749.85156
-16726.38577
-16701.90782
-16676.9605
-16649.01734
-16622.78002
-16590.314
-16556.39131
-16522.33383
-16485.12947
-16415.38078
-15367.38703
-12347.08225
-9516.346127
-6842.995338
-4342.467256
-2026.995536
95.79253964
2019.910115
3741.456185
5258.766108
6572.249008
7684.330403
8599.334776
9323.353295
9864.093473
10230.71471
10433.65229
10484.43314
10395.48629
10179.95094
9851.484574
9424.073993
8911.851164
8328.916613
7689.171705
7006.16211
6292.933629
5561.90186
4824.736543
4092.261798
3374.372419
2679.966863
2016.897049
1391.93474
810.7543524
277.9315708
-203.0429322
-629.7354626
-1000.728019
-1315.565178
-1574.690177
-1779.371797
-1931.623527
-2034.116589
-2090.088434
-2103.248301
-2077.681513
-2017.75397
-1928.018439
-1813.123979
-1677.729845
-1526.425041
-1363.654517
-1193.652959
-1020.386839
-847.5052204
-678.299805
-515.6742236
-362.1227374
-219.7180835
-90.10813546
25.47903871
126.2223923
211.6881336
281.8037688
336.8268774
377.3096378
404.0600499
418.1009215
420.6276072
412.9654911
396.528142
372.7770215
343.1835126
309.1939583
272.1982795
233.5026614
194.3065946
155.6845325
118.572222
83.75769871
51.87678355
23.41285487
-1.299456285
-22.06706025
-38.8281627
-51.63951547
-60.6617119
-66.14309007
-68.40281738
-67.81369544
-64.78519005
-59.74716565
-53.13471358
-45.37442728
-36.87239887
-28.00412912
-19.10647055
-10.47167018
-2.343467637
5.08480759
11.6702996
17.31902407
21.98282992
25.65517513
28.36597796
30.17582727
31.16980602
31.45120453
31.13533538
30.34367866
29.19851595
27.81820691
26.31319954
24.78283722
23.31300079
21.97456024
20.82260907
19.89641373
19.21999125
18.80321244
18.64331941
18.72675283
19.03116074
19.52748968
20.18206018
20.95853882
21.81974723
22.72923224
23.65258817
24.55849567
25.41947129
26.21234639
26.91848478
27.52378079
28.01846128
28.39673702
28.6563462
28.79802643
28.82495224
28.74216899
28.55606267
28.27386496
27.90322835
27.45187691
26.92732031
26.336659
25.68644184
24.98260296
24.23043525
23.43461835
22.59926744
21.72801061
20.82407566
19.89038032
18.92962255
17.94436919
16.93713172
15.91043392
14.86687358
13.80916995
12.74020322
11.66304923
10.58099813
9.497572824
8.416534445
7.341877339
6.277820288
5.228781717
4.199347545
3.194224899
2.218190079
1.27601973
0.37241909
-0.4880616652
-1.301111633
-2.06274799
-2.769403191
-3.418007818
-4.006063675
-4.531712787
-4.993787866
-5.3918528
-5.726227354
-5.99799672
-6.209005561
-6.361839153
-6.459791259
-6.506821084
-6.507499357
-6.466951453
-6.390790126
-6.285043879
-6.156088367
-6.010566751
-5.85531458
-5.697279464
-5.543441026
-5.400726332
-5.27592536
-5.175604862
-5.106015991
-5.073004749
-5.081920622
-5.137524048
-5.243898593
-5.404364627
-5.621401772
-5.896578658
-6.230494313
-6.62273381
-7.07183683
-7.575288325
-8.129522394
-8.729950904
-9.371008847
-10.04621975
-10.74828066
-11.46916328
-12.20023099
-12.9323671
-13.65611514
-14.36182394
-15.03979665
-15.68044107
-16.2744142
-16.81276352
-17.28705636
-17.68949656
-18.01302892
-18.25142369
-18.39934512
-18.45240002
-18.40716994
-18.26122429
-18.01311913
-17.66238431
-17.20949631
-16.65584355
-16.00367751
-15.25604814
-14.41671719
-13.49004248
-12.48082312
-11.39409509
-10.23483537
-9.007500868
-7.71469678
-6.355571708
-4.917748903
)
;

boundaryField
{
    inlet
    {
        type            calculated;
        value           uniform 374.6242083;
    }
    outlet
    {
        type            calculated;
        value           uniform -4.029037867;
    }
    wall
    {
        type            empty;
    }
}


// ************************************************************************* //
