/*--------------------------------*- C++ -*----------------------------------*\
  =========                 |
  \\      /  F ield         | OpenFOAM: The Open Source CFD Toolbox
   \\    /   O peration     | Website:  https://openfoam.org
    \\  /    A nd           | Version:  7
     \\/     M anipulation  |
\*---------------------------------------------------------------------------*/
FoamFile
{
    version     2.0;
    format      ascii;
    class       volScalarField;
    location    "0.000558243009";
    object      ddt0(rho,CH3O2);
}
// * * * * * * * * * * * * * * * * * * * * * * * * * * * * * * * * * * * * * //

dimensions      [1 -3 -1 0 0 0 0];

internalField   nonuniform List<scalar> 
1500
(
-2.194239819e-09
-6.76926422e-09
-1.037921047e-08
-1.072558425e-08
-8.399558811e-09
-5.310871488e-09
-2.820828191e-09
-1.294513298e-09
-5.267291326e-10
-1.993476805e-10
-8.085408436e-11
-4.719283192e-11
-4.333634603e-11
-4.827241733e-11
-5.475517169e-11
-6.050744662e-11
-6.484745684e-11
-6.757947371e-11
-6.866421485e-11
-6.812390688e-11
-6.601637917e-11
-6.242687563e-11
-5.746389635e-11
-5.125588337e-11
-4.394805328e-11
-3.569937247e-11
-2.667980346e-11
-1.706793015e-11
-7.048978996e-12
3.186851964e-12
1.344592806e-11
2.353280758e-11
3.325220183e-11
4.241146995e-11
5.082375687e-11
5.83117962e-11
6.47122956e-11
6.98806544e-11
7.36957708e-11
7.606457128e-11
7.692589728e-11
7.625341154e-11
7.405725277e-11
7.038425857e-11
6.531669683e-11
5.896955885e-11
5.148658272e-11
4.303526271e-11
3.380116245e-11
2.398187409e-11
1.378096228e-11
3.402186979e-12
-6.955756361e-12
-1.710381296e-11
-2.686637153e-11
-3.608427465e-11
-4.461706682e-11
-5.234455119e-11
-5.916774235e-11
-6.500930002e-11
-6.981351836e-11
-7.35459186e-11
-7.619248107e-11
-7.775852005e-11
-7.826720976e-11
-7.77577598e-11
-7.628325939e-11
-7.3908231e-11
-7.070596166e-11
-6.675571426e-11
-6.213994231e-11
-5.694165015e-11
-5.124203935e-11
-4.511857475e-11
-3.864357316e-11
-3.188337746e-11
-2.489813741e-11
-1.774216414e-11
-1.046478088e-11
-3.111558932e-12
4.274206701e-12
1.164993153e-11
1.897223802e-11
2.619565357e-11
3.327161861e-11
4.014788628e-11
4.67683586e-11
5.307336996e-11
5.900039694e-11
6.448514392e-11
6.946293635e-11
7.387033562e-11
7.764688512e-11
8.073688726e-11
8.309112533e-11
8.466843364e-11
8.543704794e-11
8.537566504e-11
8.447417095e-11
8.273400388e-11
8.016814782e-11
7.680077024e-11
7.266653558e-11
6.780965029e-11
6.228270369e-11
5.614537962e-11
4.946311916e-11
4.230580615e-11
3.47465371e-11
2.686052403e-11
1.872415599e-11
1.041422146e-11
2.007282568e-12
-6.420837913e-12
-1.479549294e-11
-2.304362318e-11
-3.109418639e-11
-3.887864139e-11
-4.633150939e-11
-5.339101531e-11
-5.999979652e-11
-6.610564882e-11
-7.166227027e-11
-7.66299533e-11
-8.097617514e-11
-8.467604557e-11
-8.771257917e-11
-9.007677569e-11
-9.176750909e-11
-9.279124104e-11
-9.316158896e-11
-9.289879156e-11
-9.202911438e-11
-9.058424038e-11
-8.860068288e-11
-8.611924503e-11
-8.318453551e-11
-7.984453686e-11
-7.615019959e-11
-7.215503129e-11
-6.791463357e-11
-6.348613973e-11
-5.892751249e-11
-5.429666166e-11
-4.965037239e-11
-4.504304272e-11
-4.052525882e-11
-3.614226165e-11
-3.19323814e-11
-2.792553243e-11
-2.414187669e-11
-2.059076656e-11
-1.727007758e-11
-1.416601419e-11
-1.12534679e-11
-8.496951627e-12
-5.852122761e-12
-3.267837656e-12
-6.886691798e-13
1.942247506e-12
4.680182178e-12
7.575775036e-12
1.067218018e-11
1.400257715e-11
1.758821311e-11
2.143712417e-11
2.5543624e-11
2.988861283e-11
3.444069189e-11
3.915801305e-11
4.399073311e-11
4.888389507e-11
5.378051359e-11
5.862463519e-11
6.336413015e-11
6.795299169e-11
7.235297593e-11
7.653445223e-11
8.047642128e-11
8.416572777e-11
8.759557621e-11
9.076352199e-11
9.36691601e-11
9.631176446e-11
9.868812883e-11
1.007908345e-10
1.026071315e-10
1.041185292e-10
1.0530115e-10
1.061267948e-10
1.065646188e-10
1.06583262e-10
1.061532448e-10
1.052494377e-10
1.038534262e-10
1.019556106e-10
9.955691898e-11
9.667004217e-11
9.332012044e-11
8.95448106e-11
8.5393697e-11
8.092696331e-11
7.621327964e-11
7.132687003e-11
6.634375735e-11
6.133730271e-11
5.637323002e-11
5.150451654e-11
4.676665089e-11
4.217391391e-11
3.771741618e-11
3.336561639e-11
2.906791583e-11
2.476167857e-11
2.038260873e-11
1.587789949e-11
1.122100176e-11
6.426270485e-12
1.561247413e-12
-3.245927737e-12
-7.806510233e-12
-1.188071153e-11
-1.519823936e-11
-1.74900539e-11
-1.853008532e-11
-1.8183949e-11
-1.645995409e-11
-1.355614086e-11
-9.895982009e-12
-6.144937131e-12
-3.200507501e-12
-2.149892505e-12
-4.191920862e-12
-1.052339758e-11
-2.219433418e-11
-3.994123204e-11
-6.401226834e-11
-9.400242167e-11
-1.28719665e-10
-1.66105062e-10
-2.032297747e-10
-2.363914976e-10
-2.613324485e-10
-2.736048057e-10
-2.691073238e-10
-2.448218154e-10
-1.996539869e-10
-1.352058124e-10
-5.516600374e-11
3.800561822e-11
9.647709178e-11
1.04259852e-10
1.102041659e-10
1.157115612e-10
1.211018712e-10
1.264347041e-10
1.316958684e-10
1.368582357e-10
1.418927428e-10
1.467766395e-10
1.514928114e-10
1.560272952e-10
1.603680877e-10
1.645025582e-10
1.684176423e-10
1.720996494e-10
1.755334678e-10
1.787032169e-10
1.815921197e-10
1.841827719e-10
1.864567515e-10
1.883944011e-10
1.899756863e-10
1.911792243e-10
1.919831217e-10
1.923632732e-10
1.922955325e-10
1.917538091e-10
1.907114114e-10
1.891393294e-10
1.870080519e-10
1.842858224e-10
1.809397291e-10
1.769351503e-10
1.722351654e-10
1.668016365e-10
1.605942549e-10
1.535702894e-10
1.456852578e-10
1.368923115e-10
1.27141996e-10
1.163823937e-10
1.045588416e-10
9.161425565e-11
7.748809981e-11
6.21169055e-11
4.543431412e-11
2.737016612e-11
7.850705126e-12
-1.320110135e-11
-3.586667943e-11
-6.023118341e-11
-8.638443711e-11
-1.144202117e-10
-1.444372911e-10
-1.765392934e-10
-2.108349819e-10
-2.474383946e-10
-2.864689676e-10
-3.280519573e-10
-3.723189938e-10
-4.194073934e-10
-4.694615795e-10
-5.226322403e-10
-5.790775872e-10
-6.389625593e-10
-7.024602828e-10
-7.697515619e-10
-8.410250959e-10
-9.164786263e-10
-9.963181254e-10
-1.080758874e-09
-1.170025267e-09
-1.264352023e-09
-1.363982976e-09
-1.469173216e-09
-1.580187574e-09
-1.697302449e-09
-1.82080514e-09
-1.950994879e-09
-2.088182562e-09
-2.232691349e-09
-2.384857339e-09
-2.545028529e-09
-2.713567374e-09
-2.890848727e-09
-3.077262072e-09
-3.273210485e-09
-3.479111287e-09
-3.695396973e-09
-3.922514695e-09
-4.160926713e-09
-4.411110992e-09
-4.67356096e-09
-4.94878602e-09
-5.237311933e-09
-5.539680279e-09
-5.856449588e-09
-6.188194806e-09
-6.535507798e-09
-6.89899737e-09
-7.27928896e-09
-7.677025843e-09
-8.092867472e-09
-8.527491301e-09
-8.981591634e-09
-9.455879435e-09
-9.951083344e-09
-1.046794877e-08
-1.10072378e-08
-1.156972935e-08
-1.215621884e-08
-1.27675176e-08
-1.340445338e-08
-1.406786927e-08
-1.475862399e-08
-1.547759062e-08
-1.62256579e-08
-1.700372739e-08
-1.781271495e-08
-1.86535492e-08
-1.952717138e-08
-2.043453444e-08
-2.137660241e-08
-2.235435016e-08
-2.336876141e-08
-2.44208298e-08
-2.551155611e-08
-2.66419491e-08
-2.781302318e-08
-2.902579823e-08
-3.028129864e-08
-3.158055182e-08
-3.292458795e-08
-3.431443761e-08
-3.575113139e-08
-3.723569943e-08
-3.876916872e-08
-4.035256297e-08
-4.198690146e-08
-4.367319644e-08
-4.541245339e-08
-4.720566871e-08
-4.905382946e-08
-5.095791035e-08
-5.291887439e-08
-5.493766948e-08
-5.7015229e-08
-5.915246957e-08
-6.135028926e-08
-6.36095673e-08
-6.593116167e-08
-6.831590932e-08
-7.076462312e-08
-7.327809231e-08
-7.585707994e-08
-7.850232256e-08
-8.121452937e-08
-8.399437994e-08
-8.684252453e-08
-8.975958265e-08
-9.274614179e-08
-9.580275803e-08
-9.892995295e-08
-1.021282155e-07
-1.053980008e-07
-1.087397279e-07
-1.121537823e-07
-1.156405137e-07
-1.192002368e-07
-1.228332317e-07
-1.265397421e-07
-1.303199786e-07
-1.34174117e-07
-1.381022991e-07
-1.421046342e-07
-1.461812002e-07
-1.503320432e-07
-1.545571802e-07
-1.588566009e-07
-1.632302668e-07
-1.676781161e-07
-1.722000642e-07
-1.76796006e-07
-1.814658176e-07
-1.862093615e-07
-1.910264862e-07
-1.959170321e-07
-2.008808327e-07
-2.059177196e-07
-2.110275265e-07
-2.162100913e-07
-2.214652629e-07
-2.267929037e-07
-2.321928962e-07
-2.376651476e-07
-2.432095939e-07
-2.488262073e-07
-2.545150019e-07
-2.602760391e-07
-2.661094343e-07
-2.720153652e-07
-2.779940757e-07
-2.840458893e-07
-2.901712087e-07
-2.963705308e-07
-3.026444529e-07
-3.089936796e-07
-3.15419034e-07
-3.219214677e-07
-3.285020662e-07
-3.351620668e-07
-3.419028592e-07
-3.487260055e-07
-3.556332445e-07
-3.62626506e-07
-3.697079254e-07
-3.7687985e-07
-3.841448558e-07
-3.915057582e-07
-3.989656281e-07
-4.065278036e-07
-4.14195903e-07
-4.219738422e-07
-4.298658478e-07
-4.378764732e-07
-4.460106124e-07
-4.542735197e-07
-4.626708246e-07
-4.712085448e-07
-4.798931114e-07
-4.887313829e-07
-4.977306608e-07
-5.068987145e-07
-5.16243794e-07
-5.257746558e-07
-5.355005794e-07
-5.454313895e-07
-5.555774787e-07
-5.659498266e-07
-5.76560023e-07
-5.874202933e-07
-5.985435211e-07
-6.0994327e-07
-6.216338111e-07
-6.336301512e-07
-6.459480519e-07
-6.586040597e-07
-6.716155416e-07
-6.850006977e-07
-6.987786041e-07
-7.129692404e-07
-7.275935149e-07
-7.42673301e-07
-7.582314726e-07
-7.742919349e-07
-7.908796517e-07
-8.080206914e-07
-8.257422442e-07
-8.440726462e-07
-8.630413725e-07
-8.82678693e-07
-9.030209615e-07
-9.239825224e-07
-9.457251275e-07
-9.683739751e-07
-9.921173161e-07
-1.016680808e-06
-1.042099474e-06
-1.068415515e-06
-1.095672851e-06
-1.123917645e-06
-1.153198226e-06
-1.183565248e-06
-1.215071803e-06
-1.247773564e-06
-1.281728031e-06
-1.317027231e-06
-1.354234294e-06
-1.392952263e-06
-1.433238573e-06
-1.475167141e-06
-1.51868351e-06
-1.563884041e-06
-1.610936504e-06
-1.65992188e-06
-1.710921939e-06
-1.76402292e-06
-1.819314986e-06
-1.87689225e-06
-1.936853008e-06
-1.999299983e-06
-2.064340614e-06
-2.132087448e-06
-2.202658478e-06
-2.276177626e-06
-2.352775248e-06
-2.432588685e-06
-2.515762939e-06
-2.602451429e-06
-2.692816837e-06
-2.787032135e-06
-2.885281701e-06
-2.987762704e-06
-3.094686597e-06
-3.206280962e-06
-3.322791575e-06
-3.444484848e-06
-3.571650685e-06
-3.704605772e-06
-3.843697484e-06
-3.98930839e-06
-4.141861575e-06
-4.301826819e-06
-4.469727919e-06
-4.646151154e-06
-4.831755324e-06
-5.027283446e-06
-5.233576498e-06
-5.451589591e-06
-5.682410828e-06
-5.92728361e-06
-6.187632667e-06
-6.465094744e-06
-6.76155448e-06
-7.079186743e-06
-7.420506134e-06
-7.788425251e-06
-8.186323009e-06
-8.618124939e-06
-9.088397409e-06
-9.602458255e-06
-1.016650663e-05
-1.078777546e-05
-1.147471037e-05
-1.223717962e-05
-1.308672055e-05
-1.403682868e-05
-1.510329687e-05
-1.63046133e-05
-1.766242799e-05
-1.920210029e-05
-2.095334055e-05
-2.295096257e-05
-2.52357657e-05
-2.785556869e-05
-3.086642126e-05
-3.433402379e-05
-3.833539058e-05
-4.296079811e-05
-4.831606674e-05
-5.45252327e-05
-6.173367637e-05
-7.011178407e-05
-7.98592339e-05
-9.121001114e-05
-0.0001044382757
-0.000119865226
-0.0001378671266
-0.000158884695
-0.0001834340751
-0.0002121196661
-0.000245649112
-0.0002848508184
-0.0003306944129
-0.0003843146452
-0.0004470392905
-0.0005204217292
-0.0006062789751
-0.0007067360452
-0.0008242777331
-0.0009618089949
-0.001122725363
-0.001310995046
-0.001531254609
-0.001788920485
-0.002090318845
-0.002442836892
-0.002855098952
-0.003337171488
-0.003900801599
-0.004559694427
-0.005329835731
-0.006229866786
-0.007281519874
-0.008510124089
-0.009945192291
-0.01162110195
-0.01357788449
-0.01586213951
-0.0185280931
-0.02163882136
-0.02526766388
-0.02949985427
-0.03443439801
-0.04018623161
-0.04688870007
-0.0546963912
-0.0637883694
-0.07437184995
-0.08668635547
-0.1010083895
-0.1176566555
-0.1369978305
-0.1594528825
-0.1855038762
-0.215701164
-0.250670882
-0.2911218766
-0.3378530426
-0.3917586638
-0.4538322138
-0.5251670172
-0.6069521463
-0.7004631248
-0.8070420304
-0.9280685171
-1.064916064
-1.218891698
-1.391156349
-1.582623843
-1.793837682
-2.024826606
-2.274942402
-2.542686446
-2.825534847
-3.119775574
-3.420372663
-3.720875783
-4.013389845
-4.28861768
-4.535981275
-4.743816336
-4.899631954
-4.990395519
-5.002823794
-4.923622134
-4.739600922
-4.437632342
-4.004185197
-3.424330261
-2.679459868
-1.742876558
-0.571945154
0.9048902906
2.808885374
5.34138291
8.94766078
14.02363118
22.11051953
33.15993281
48.25999465
67.03317415
94.74507259
126.5901192
158.9070815
184.2808215
192.7653884
175.9905178
134.5508411
74.79910753
5.568640426
-59.20449559
-114.3129348
-132.3721804
-148.3869396
-148.810546
-139.0420516
-119.461548
-102.8824572
-86.97693159
-72.78909411
-58.32400127
-47.63178281
-38.62197597
-31.15300149
-25.03991712
-20.07457393
-16.07550884
-12.72539201
-10.14044024
-8.036704073
-6.375796511
-5.050348199
-3.99618134
-3.160968546
-2.501365408
-1.974079591
-1.543198394
-1.204353806
-0.9376264041
-0.7277284912
-0.5638001727
-0.437524448
-0.3406234048
-0.2662540345
-0.2086594141
-0.1612503503
-0.1244144093
-0.0966937371
-0.07494013665
-0.05794877431
-0.04473470429
-0.03449339312
-0.02657610629
-0.02045582009
-0.01574487525
-0.01211542324
-0.009320873673
-0.007170152449
-0.005515512108
-0.004242874245
-0.003264247972
-0.002511817266
-0.001933348109
-0.001488631602
-0.001146724776
-0.0008838292114
-0.0006816475196
-0.0005261161077
-0.0004064284835
-0.0003142828264
-0.0002433026425
-0.0001885908802
-0.0001463869511
-0.0001138030215
-8.862134187e-05
-6.913854384e-05
-5.404607558e-05
-4.233840609e-05
-3.324257203e-05
-2.616411676e-05
-2.064561453e-05
-1.633485364e-05
-1.296043048e-05
-1.031302803e-05
-8.231053806e-06
-6.589620523e-06
-5.292089507e-06
-4.263579e-06
-3.445978864e-06
-2.794120321e-06
-2.272831476e-06
-1.854672279e-06
-1.518190805e-06
-1.246579704e-06
-1.026639963e-06
-8.479808069e-07
-7.024011573e-07
-5.834108218e-07
-4.858592822e-07
-4.056474427e-07
-3.395034046e-07
-2.848077159e-07
-2.394569032e-07
-2.017566709e-07
-1.703381256e-07
-1.440919049e-07
-1.221162521e-07
-1.036759775e-07
-8.816993576e-08
-7.510517826e-08
-6.407635357e-08
-5.474924073e-08
-4.68475481e-08
-4.014229844e-08
-3.444326788e-08
-2.959206114e-08
-2.545649356e-08
-2.192602032e-08
-1.890800683e-08
-1.63246772e-08
-1.411061072e-08
-1.221068256e-08
-1.05783656e-08
-9.174326482e-09
-7.965262552e-09
-6.922935811e-09
-6.023369041e-09
-5.246175439e-09
-4.573998442e-09
-3.992042811e-09
-3.487681395e-09
-3.050124835e-09
-2.670143612e-09
-2.339833808e-09
-2.052419457e-09
-1.802085524e-09
-1.583836514e-09
-1.393376659e-09
-1.227008287e-09
-1.08154541e-09
-9.542405597e-10
-8.427218547e-10
-7.449399894e-10
-6.591226723e-10
-5.837358289e-10
-5.174503818e-10
-4.591138157e-10
-4.07725853e-10
-3.624175711e-10
-3.224334919e-10
-2.871162025e-10
-2.558931288e-10
-2.282651464e-10
-2.037967822e-10
-1.821077728e-10
-1.628657707e-10
-1.457800657e-10
-1.305961416e-10
-1.170909763e-10
-1.050689775e-10
-9.435846388e-11
-8.480860753e-11
-7.628679953e-11
-6.86763338e-11
-6.187442081e-11
-5.57904471e-11
-5.034447114e-11
-4.546590887e-11
-4.109237522e-11
-3.716869389e-11
-3.364602418e-11
-3.048109733e-11
-2.763554807e-11
-2.50753378e-11
-2.277023365e-11
-2.069337554e-11
-1.882086371e-11
-1.713143165e-11
-1.560613338e-11
-1.422808351e-11
-1.298221787e-11
-1.185509036e-11
-1.083469614e-11
-9.910291516e-12
-9.072275204e-12
-8.312055972e-12
-7.621935078e-12
-6.995015376e-12
-6.425108335e-12
-5.90666513e-12
-5.434697439e-12
-5.004731167e-12
-4.612743816e-12
-4.255118041e-12
-3.928598011e-12
-3.630251926e-12
-3.357440622e-12
-3.107784999e-12
-2.879137772e-12
-2.669565158e-12
-2.477320439e-12
-2.300827308e-12
-2.13865957e-12
-1.989528545e-12
-1.852271563e-12
-1.725833172e-12
-1.609260797e-12
-1.501690174e-12
-1.402338313e-12
-1.310496112e-12
-1.225520159e-12
-1.14682572e-12
-1.073882957e-12
-1.006212118e-12
-9.433751949e-13
-8.849729095e-13
-8.306449368e-13
-7.800627926e-13
-7.329246816e-13
-6.889579038e-13
-6.479124159e-13
-6.095626576e-13
-5.736999116e-13
-5.40134867e-13
-5.086942952e-13
-4.79220497e-13
-4.515693528e-13
-4.256066776e-13
-4.012116441e-13
-3.782729538e-13
-3.566878372e-13
-3.363617387e-13
-3.172085563e-13
-2.99150006e-13
-2.821132166e-13
-2.660299642e-13
-2.508380456e-13
-2.364802422e-13
-2.229040104e-13
-2.100612882e-13
-1.979059828e-13
-1.863964961e-13
-1.754934553e-13
-1.651614221e-13
-1.553669077e-13
-1.460785934e-13
-1.372680034e-13
-1.289083103e-13
-1.20973994e-13
-1.134421703e-13
-1.062906759e-13
-9.949936799e-14
-9.30485801e-14
-8.692086232e-14
-8.10992932e-14
-7.556861656e-14
-7.031345561e-14
-6.532009303e-14
-6.0575488e-14
-5.606748251e-14
-5.178420247e-14
-4.771543046e-14
-4.385021995e-14
-4.017888708e-14
-3.66924696e-14
-3.338217554e-14
-3.023943443e-14
-2.725641274e-14
-2.442541134e-14
-2.174006039e-14
-1.919340098e-14
-1.677900066e-14
-1.449125408e-14
-1.232391081e-14
-1.027166685e-14
-8.32935323e-15
-6.491673756e-15
-4.754410065e-15
-3.112866556e-15
-1.562825748e-15
-1.000896013e-16
1.279380714e-15
2.57953772e-15
3.803624009e-15
4.955016157e-15
6.037006985e-15
7.053365378e-15
8.006360808e-15
8.899298251e-15
9.734648406e-15
1.051532764e-14
1.124344799e-14
1.192148036e-14
1.255157156e-14
1.313599328e-14
1.367711738e-14
1.417701332e-14
1.463741727e-14
1.506043489e-14
1.544805662e-14
1.580161882e-14
1.61227358e-14
1.641315119e-14
1.66740498e-14
1.690727956e-14
1.711404982e-14
1.729541677e-14
1.745281665e-14
1.758731921e-14
1.770024044e-14
1.779278496e-14
1.786591479e-14
1.792081523e-14
1.79582467e-14
1.79791564e-14
1.798446255e-14
1.797526679e-14
1.795220619e-14
1.791604049e-14
1.786748942e-14
1.780759926e-14
1.773675648e-14
1.765551659e-14
1.756466363e-14
1.746476661e-14
1.735643638e-14
1.724025026e-14
1.711659379e-14
1.698629935e-14
1.684965963e-14
1.670702092e-14
1.655879187e-14
1.640549185e-14
1.624745514e-14
1.608524721e-14
1.591910491e-14
1.57492008e-14
1.557598813e-14
1.539984502e-14
1.522098665e-14
1.503981028e-14
1.485676251e-14
1.467178855e-14
1.448519262e-14
1.429724161e-14
1.41082464e-14
1.391824102e-14
1.37274533e-14
1.353609792e-14
1.334435719e-14
1.315233983e-14
1.296036678e-14
1.276853371e-14
1.257684217e-14
1.238574472e-14
1.219516522e-14
1.200518286e-14
1.181600926e-14
1.162762598e-14
1.144005908e-14
1.125367222e-14
1.106841888e-14
1.088436642e-14
1.070167685e-14
1.052021587e-14
1.034024461e-14
1.016167148e-14
9.984755216e-15
9.809453737e-15
9.635916947e-15
9.46394015e-15
9.293616679e-15
9.125107101e-15
8.958333894e-15
8.793503214e-15
8.630603863e-15
8.469625338e-15
8.310543735e-15
8.153359123e-15
7.998040761e-15
7.844704644e-15
7.69332551e-15
7.543866368e-15
7.396432172e-15
7.250968037e-15
7.107618944e-15
6.966292711e-15
6.827021493e-15
6.689773666e-15
6.554531936e-15
6.421309279e-15
6.290036487e-15
6.160776429e-15
6.033495703e-15
5.908242455e-15
5.784989353e-15
5.663857713e-15
5.544624653e-15
5.427193557e-15
5.311689201e-15
5.19806158e-15
5.086399021e-15
4.976672709e-15
4.868865086e-15
4.762838218e-15
4.658616872e-15
4.556222577e-15
4.45561386e-15
4.356832517e-15
4.259899509e-15
4.164710305e-15
4.071270312e-15
3.979491692e-15
3.889379451e-15
3.800998135e-15
3.714285044e-15
3.629256566e-15
3.545770604e-15
3.463908641e-15
3.383650815e-15
3.304952708e-15
3.227834272e-15
3.152294652e-15
3.078224512e-15
3.005644242e-15
2.934514109e-15
2.864828473e-15
2.796625609e-15
2.729800627e-15
2.664349007e-15
2.600216284e-15
2.537411667e-15
2.475959171e-15
2.415771962e-15
2.35689386e-15
2.299244696e-15
2.242906897e-15
2.187770345e-15
2.133896251e-15
2.081221091e-15
2.029641025e-15
1.979232805e-15
1.929935815e-15
1.881758176e-15
1.834666359e-15
1.788696956e-15
1.743754791e-15
1.699829718e-15
1.656975244e-15
1.615095904e-15
1.574273558e-15
1.534480118e-15
1.495681719e-15
1.45777297e-15
1.42073015e-15
1.384584643e-15
1.349371774e-15
1.314985151e-15
1.281448951e-15
1.248729616e-15
1.216862818e-15
1.185800408e-15
1.155560692e-15
1.12612861e-15
1.0974752e-15
1.069571552e-15
1.042398256e-15
1.016023115e-15
9.903516586e-16
9.653867563e-16
9.41061106e-16
9.173561428e-16
8.94310466e-16
8.719682417e-16
8.502779065e-16
8.292469534e-16
8.087561459e-16
7.888401852e-16
7.695376081e-16
7.508101938e-16
7.326090466e-16
7.149631648e-16
6.978714661e-16
6.813231299e-16
6.653169362e-16
6.498217433e-16
6.348170045e-16
6.203258472e-16
6.063345198e-16
5.927582574e-16
5.796734759e-16
5.670068741e-16
5.547687547e-16
5.429269495e-16
5.315300606e-16
5.205662065e-16
5.099920325e-16
4.997922546e-16
4.899742056e-16
4.805190459e-16
4.714180543e-16
4.62682615e-16
4.543522147e-16
4.463831594e-16
4.387302464e-16
4.314080795e-16
4.243972009e-16
4.177059431e-16
4.112902933e-16
4.051475744e-16
3.992959519e-16
3.937259636e-16
3.884344083e-16
3.83425392e-16
3.787009609e-16
3.742376643e-16
3.700383813e-16
3.66060201e-16
3.622868689e-16
3.587297483e-16
3.553850794e-16
3.522841108e-16
3.493643185e-16
3.46693074e-16
3.442242648e-16
3.419621564e-16
3.399112015e-16
3.380142719e-16
3.362964607e-16
3.347711541e-16
3.334205237e-16
3.322500207e-16
3.31255945e-16
3.304453621e-16
3.298147174e-16
3.293955217e-16
3.291295439e-16
3.290195607e-16
3.290602826e-16
3.292334927e-16
3.295042649e-16
3.298668087e-16
3.300992276e-16
3.302552593e-16
3.298720521e-16
3.285596329e-16
3.257984716e-16
3.217406118e-16
2.774949613e-16
3.798982155e-16
4.252210186e-16
4.717619247e-16
5.152554287e-16
5.530278005e-16
5.840620911e-16
6.07572631e-16
6.230876229e-16
6.307835536e-16
6.308142548e-16
6.231567356e-16
6.086086375e-16
5.875115259e-16
5.604651222e-16
5.278985657e-16
4.904750569e-16
4.489350348e-16
4.037656063e-16
3.555999432e-16
3.050209369e-16
2.526608825e-16
1.990724663e-16
1.448507419e-16
9.046041682e-17
3.645683057e-17
-1.670510209e-17
-6.857190485e-17
-1.187263663e-16
-1.6678824e-16
-2.124072746e-16
-2.55275571e-16
-2.951181775e-16
-3.316975384e-16
-3.648260059e-16
-3.94348788e-16
-4.201459857e-16
-4.421469489e-16
-4.603181541e-16
-4.746699297e-16
-4.852500666e-16
-4.921443777e-16
-4.95479473e-16
-4.954129251e-16
-4.921366844e-16
-4.858762046e-16
-4.768758792e-16
-4.654123526e-16
-4.517708497e-16
-4.362531203e-16
-4.191713095e-16
-4.008429353e-16
-3.815690394e-16
-3.616620799e-16
-3.414058933e-16
-3.210838409e-16
-3.009300591e-16
-2.81176389e-16
-2.620256695e-16
-2.436363623e-16
-2.26145593e-16
-2.096547261e-16
-1.942327007e-16
-1.799255924e-16
-1.667397154e-16
-1.546654736e-16
-1.436663167e-16
-1.336884799e-16
-1.246618761e-16
-1.165057124e-16
-1.091308493e-16
-1.024451327e-16
-9.635440557e-17
-9.076765969e-17
-8.559737057e-17
-8.076311316e-17
-7.619176685e-17
-7.182325399e-17
-6.760098765e-17
-6.348476861e-17
-5.943903394e-17
-5.544444355e-17
-5.148372481e-17
-4.755193911e-17
-4.365177847e-17
-3.978999661e-17
-3.597825036e-17
-3.223369057e-17
-2.85740062e-17
-2.502019599e-17
-2.159267493e-17
-1.831227466e-17
-1.519769803e-17
-1.226685686e-17
-9.534412778e-18
-7.012859391e-18
-4.711267123e-18
-2.635391422e-18
-7.877580263e-19
8.325271657e-19
2.229521483e-18
3.410341219e-18
4.384852211e-18
5.165263787e-18
5.765887275e-18
6.202620157e-18
6.492587162e-18
6.653660853e-18
6.704159289e-18
6.662105648e-18
6.54542554e-18
6.370997343e-18
6.154759039e-18
5.911303814e-18
5.653617061e-18
5.393143922e-18
5.139427889e-18
4.900271564e-18
4.681677941e-18
4.487870506e-18
4.32148018e-18
4.183610047e-18
4.074003628e-18
3.99129119e-18
3.933100919e-18
3.896355571e-18
3.877385597e-18
3.872241299e-18
3.876767041e-18
3.886838954e-18
3.898507139e-18
3.908096266e-18
3.912351633e-18
3.908409807e-18
3.893993257e-18
3.86733664e-18
3.827196106e-18
3.772883658e-18
3.704151178e-18
3.621175012e-18
3.524544703e-18
3.415219412e-18
3.294216384e-18
3.162988035e-18
3.022859105e-18
2.875275993e-18
2.72184235e-18
2.563910386e-18
2.402816276e-18
2.239792138e-18
2.075929868e-18
1.912155437e-18
1.749286661e-18
1.58797871e-18
1.428763332e-18
1.271991844e-18
1.117959125e-18
9.668515318e-19
8.18790178e-19
6.738196793e-19
5.320404927e-19
3.934480004e-19
2.580986074e-19
1.259824538e-19
-2.811812238e-21
-1.281984888e-19
-2.500278166e-19
-3.682171382e-19
-4.826271765e-19
-5.929935779e-19
-6.992108588e-19
-8.010369537e-19
-8.982863001e-19
-9.908600143e-19
-1.078514058e-18
-1.161227212e-18
-1.238859118e-18
-1.311357356e-18
-1.378796882e-18
-1.44121973e-18
-1.498706518e-18
-1.551436274e-18
-1.599606604e-18
-1.643457382e-18
-1.68324476e-18
-1.71939285e-18
-1.752134522e-18
-1.781858311e-18
-1.80896197e-18
-1.833852463e-18
-1.856871848e-18
-1.87849276e-18
-1.899073219e-18
-1.918974779e-18
-1.938582606e-18
-1.958272675e-18
-1.978327e-18
-1.999027431e-18
-2.020651086e-18
-2.043465454e-18
-2.067584664e-18
-2.093161514e-18
-2.120274733e-18
-2.148987097e-18
-2.179231506e-18
-2.210911641e-18
-2.243859922e-18
-2.277844923e-18
-2.312581929e-18
-2.347697298e-18
-2.382720601e-18
-2.417164616e-18
-2.450472942e-18
-2.481968295e-18
-2.511021301e-18
-2.536873518e-18
-2.558824014e-18
-2.576053643e-18
-2.587792317e-18
-2.593259928e-18
-2.591702445e-18
-2.582383923e-18
-2.5646176e-18
-2.537765822e-18
-2.501265168e-18
-2.454622563e-18
-2.397445033e-18
-2.329440701e-18
-2.250398142e-18
-2.160222247e-18
-2.058955025e-18
-1.946723483e-18
-1.823780828e-18
-1.690506189e-18
-1.547370372e-18
-1.394961055e-18
-1.233916144e-18
-1.065039636e-18
-8.891677379e-19
-7.071985643e-19
-5.201706654e-19
-3.290533964e-19
-1.349704187e-19
6.093846556e-20
2.575934958e-19
4.538489224e-19
6.486634881e-19
8.410885937e-19
1.030298252e-18
1.216186708e-18
)
;

boundaryField
{
    inlet
    {
        type            calculated;
        value           uniform 0;
    }
    outlet
    {
        type            calculated;
        value           uniform 1.265454495e-18;
    }
    wall
    {
        type            empty;
    }
}


// ************************************************************************* //
