/*--------------------------------*- C++ -*----------------------------------*\
  =========                 |
  \\      /  F ield         | OpenFOAM: The Open Source CFD Toolbox
   \\    /   O peration     | Website:  https://openfoam.org
    \\  /    A nd           | Version:  7
     \\/     M anipulation  |
\*---------------------------------------------------------------------------*/
FoamFile
{
    version     2.0;
    format      ascii;
    class       volScalarField;
    location    "0.000558243009";
    object      ddt0(rho,CH3CHO);
}
// * * * * * * * * * * * * * * * * * * * * * * * * * * * * * * * * * * * * * //

dimensions      [1 -3 -1 0 0 0 0];

internalField   nonuniform List<scalar> 
1500
(
-1.039670523e-08
-3.19760738e-08
-4.889065368e-08
-5.033904853e-08
-3.925362645e-08
-2.470175487e-08
-1.305355768e-08
-5.958309592e-09
-2.410892952e-09
-9.078713679e-10
-3.68006634e-10
-2.167681103e-10
-2.011186101e-10
-2.25071649e-10
-2.557157455e-10
-2.827593351e-10
-3.031301196e-10
-3.159467648e-10
-3.210348658e-10
-3.185011049e-10
-3.086172567e-10
-2.9178322e-10
-2.685078626e-10
-2.393935561e-10
-2.051213365e-10
-1.664367232e-10
-1.241368053e-10
-7.905910496e-11
-3.207229507e-11
1.593163492e-11
6.404457924e-11
1.11349957e-10
1.569319047e-10
1.998869775e-10
2.393388632e-10
2.744562198e-10
3.044732394e-10
3.287117751e-10
3.466038843e-10
3.577130713e-10
3.617525151e-10
3.585986991e-10
3.482991716e-10
3.310735916e-10
3.073077774e-10
2.775410154e-10
2.42447407e-10
2.028124652e-10
1.595064456e-10
1.134560147e-10
6.561584816e-11
1.694153788e-11
-3.163507479e-11
-7.922736243e-11
-1.250117441e-10
-1.682418044e-10
-2.082588357e-10
-2.444991405e-10
-2.764984966e-10
-3.038941947e-10
-3.264249854e-10
-3.439291709e-10
-3.563410018e-10
-3.636854003e-10
-3.660710499e-10
-3.636818343e-10
-3.567667319e-10
-3.456283394e-10
-3.30610358e-10
-3.120845143e-10
-2.904374984e-10
-2.660585831e-10
-2.393285873e-10
-2.106108048e-10
-1.80244387e-10
-1.485404678e-10
-1.157811377e-10
-8.222110397e-11
-4.809168261e-11
-1.36065938e-11
2.103111838e-11
5.562174117e-11
8.996184294e-11
1.238381671e-10
1.57022979e-10
1.892712515e-10
2.203198971e-10
2.498890963e-10
2.77685627e-10
3.034079567e-10
3.267527742e-10
3.474225668e-10
3.651338042e-10
3.796252773e-10
3.906661688e-10
3.980634209e-10
4.016680651e-10
4.01380195e-10
3.971523766e-10
3.889913557e-10
3.769580243e-10
3.611657222e-10
3.41777019e-10
3.18999234e-10
2.930789996e-10
2.642962208e-10
2.329578027e-10
1.99391486e-10
1.639400782e-10
1.269563087e-10
8.879842531e-11
4.982655108e-11
1.03997458e-11
-2.912639658e-11
-6.840179773e-11
-1.070838237e-10
-1.448393013e-10
-1.813467867e-10
-2.162991977e-10
-2.494068219e-10
-2.804006399e-10
-3.090358256e-10
-3.350952322e-10
-3.583926393e-10
-3.78775522e-10
-3.961271495e-10
-4.103678645e-10
-4.214554577e-10
-4.293846481e-10
-4.341857391e-10
-4.359225945e-10
-4.346901291e-10
-4.306115224e-10
-4.238353623e-10
-4.145328874e-10
-4.028954565e-10
-3.891322753e-10
-3.734683719e-10
-3.561426934e-10
-3.3740618e-10
-3.17519591e-10
-2.967508704e-10
-2.753718509e-10
-2.536541174e-10
-2.31863981e-10
-2.102565571e-10
-1.890690848e-10
-1.685137344e-10
-1.487702664e-10
-1.299789735e-10
-1.122344104e-10
-9.558043902e-11
-8.000709508e-11
-6.54496805e-11
-5.179044153e-11
-3.886295128e-11
-2.645925235e-11
-1.433949118e-11
-2.243725977e-12
1.009472734e-11
2.293507324e-11
3.651480252e-11
5.103630038e-11
6.665517212e-11
8.347106127e-11
1.015216566e-10
1.207802901e-10
1.411573873e-10
1.625056957e-10
1.846289547e-10
2.072934117e-10
2.302413284e-10
2.532054556e-10
2.759233837e-10
2.981506341e-10
3.196714456e-10
3.403064615e-10
3.599167203e-10
3.784037404e-10
3.957058251e-10
4.117911058e-10
4.266481174e-10
4.402749603e-10
4.526682301e-10
4.638128889e-10
4.736741463e-10
4.821922061e-10
4.892803514e-10
4.94826602e-10
4.98698708e-10
5.007520158e-10
5.008394526e-10
4.988227648e-10
4.945841e-10
4.880370983e-10
4.791367392e-10
4.678873749e-10
4.543485229e-10
4.386380854e-10
4.209326649e-10
4.014648017e-10
3.805167452e-10
3.584105435e-10
3.354942922e-10
3.121245229e-10
2.886452844e-10
2.653648075e-10
2.425315452e-10
2.203119319e-10
1.987729415e-10
1.778728841e-10
1.574638385e-10
1.373085065e-10
1.171131386e-10
9.657620085e-11
7.545004035e-11
5.361014695e-11
3.112384353e-11
8.307886142e-12
-1.423677501e-11
-3.562496649e-11
-5.473212894e-11
-7.029064704e-11
-8.103878062e-11
-8.591630759e-11
-8.429299271e-11
-7.620780505e-11
-6.258951254e-11
-4.542411579e-11
-2.783248367e-11
-1.402371261e-11
-9.09654449e-12
-1.86732387e-11
-4.836656406e-11
-1.031008572e-10
-1.863301476e-10
-2.992182833e-10
-4.398655534e-10
-6.026805951e-10
-7.780037593e-10
-9.520873271e-10
-1.107532381e-09
-1.224274815e-09
-1.281225284e-09
-1.258661873e-09
-1.141531758e-09
-9.23325191e-10
-6.099611173e-10
-2.178458667e-10
2.400686808e-10
5.270856594e-10
5.640764831e-10
5.943966197e-10
6.231921835e-10
6.516068184e-10
6.798385193e-10
7.078114379e-10
7.354162523e-10
7.625434972e-10
7.891120261e-10
8.150618395e-10
8.403424819e-10
8.649092139e-10
8.887128181e-10
9.117019421e-10
9.338230103e-10
9.550168271e-10
9.752216802e-10
9.943726788e-10
1.012402929e-09
1.029241651e-09
1.044813156e-09
1.059040877e-09
1.071842864e-09
1.083135752e-09
1.092826833e-09
1.100824282e-09
1.107028281e-09
1.111337362e-09
1.113640401e-09
1.113825188e-09
1.111770291e-09
1.107350221e-09
1.100432876e-09
1.09087683e-09
1.078536449e-09
1.063257468e-09
1.04487586e-09
1.023221027e-09
9.9811296e-10
9.693611572e-10
9.367653347e-10
9.001141403e-10
8.591867102e-10
8.13747868e-10
7.635505885e-10
7.083362217e-10
6.478302464e-10
5.817432401e-10
5.097723954e-10
4.315962872e-10
3.468779902e-10
2.552606625e-10
1.5637091e-10
4.981377546e-11
-6.482645673e-11
-1.879877583e-10
-3.201310162e-10
-4.617406667e-10
-6.133267503e-10
-7.754275823e-10
-9.486066316e-10
-1.133459285e-09
-1.330609022e-09
-1.540713448e-09
-1.76446072e-09
-2.002576552e-09
-2.255822011e-09
-2.524994737e-09
-2.810934536e-09
-3.114519817e-09
-3.436672896e-09
-3.778359355e-09
-4.140594014e-09
-4.524435589e-09
-4.930997038e-09
-5.361438846e-09
-5.816977936e-09
-6.29888498e-09
-6.808489619e-09
-7.347179692e-09
-7.916404472e-09
-8.517678358e-09
-9.152576503e-09
-9.822747309e-09
-1.052990338e-08
-1.127583254e-08
-1.206239356e-08
-1.289151986e-08
-1.376522447e-08
-1.468559829e-08
-1.565481288e-08
-1.667512393e-08
-1.774887085e-08
-1.88784799e-08
-2.006646668e-08
-2.131543443e-08
-2.262807999e-08
-2.400719211e-08
-2.54556546e-08
-2.697644715e-08
-2.857264469e-08
-3.024742376e-08
-3.200405561e-08
-3.384591534e-08
-3.577647738e-08
-3.779931532e-08
-3.991810732e-08
-4.213663261e-08
-4.445877174e-08
-4.688850796e-08
-4.942992614e-08
-5.208721085e-08
-5.486464913e-08
-5.776662591e-08
-6.079762588e-08
-6.396222803e-08
-6.726511184e-08
-7.071104456e-08
-7.430488833e-08
-7.805159287e-08
-8.195619524e-08
-8.602381554e-08
-9.025965365e-08
-9.46689884e-08
-9.925716772e-08
-1.040296134e-07
-1.089918078e-07
-1.141492971e-07
-1.195076799e-07
-1.25072606e-07
-1.308497703e-07
-1.368449059e-07
-1.430637811e-07
-1.495121878e-07
-1.561959379e-07
-1.631208605e-07
-1.70292787e-07
-1.777175495e-07
-1.854009735e-07
-1.933488639e-07
-2.015670046e-07
-2.100611453e-07
-2.188369982e-07
-2.279002219e-07
-2.372564216e-07
-2.469111314e-07
-2.568698138e-07
-2.671378469e-07
-2.777205131e-07
-2.886229951e-07
-2.998503614e-07
-3.114075644e-07
-3.23299423e-07
-3.355306215e-07
-3.481056947e-07
-3.610290224e-07
-3.743048228e-07
-3.87937138e-07
-4.01929832e-07
-4.16286581e-07
-4.310108631e-07
-4.461059584e-07
-4.615749306e-07
-4.774206324e-07
-4.93645696e-07
-5.1025252e-07
-5.27243277e-07
-5.446198989e-07
-5.623840795e-07
-5.805372704e-07
-5.990806718e-07
-6.180152431e-07
-6.37341692e-07
-6.570604765e-07
-6.771718073e-07
-6.976756519e-07
-7.185717286e-07
-7.398595176e-07
-7.615382667e-07
-7.836069856e-07
-8.060644653e-07
-8.289092801e-07
-8.521397952e-07
-8.757541756e-07
-8.997504068e-07
-9.241262916e-07
-9.488794802e-07
-9.740074709e-07
-9.995076361e-07
-1.025377239e-06
-1.051613445e-06
-1.078213354e-06
-1.105174009e-06
-1.132492434e-06
-1.16016565e-06
-1.1881907e-06
-1.216564686e-06
-1.245284791e-06
-1.274348314e-06
-1.3037527e-06
-1.333495582e-06
-1.363574803e-06
-1.393988481e-06
-1.424735009e-06
-1.455813134e-06
-1.487221987e-06
-1.518961118e-06
-1.551030555e-06
-1.583430858e-06
-1.616163146e-06
-1.649229187e-06
-1.682631406e-06
-1.716372989e-06
-1.750457905e-06
-1.784890978e-06
-1.819677969e-06
-1.854825607e-06
-1.890341676e-06
-1.926235074e-06
-1.962515894e-06
-1.999195493e-06
-2.036286551e-06
-2.073803171e-06
-2.111760941e-06
-2.150177026e-06
-2.189070235e-06
-2.228461128e-06
-2.268372089e-06
-2.308827405e-06
-2.349853386e-06
-2.391478445e-06
-2.43373318e-06
-2.476650501e-06
-2.520265699e-06
-2.564616579e-06
-2.609743547e-06
-2.655689725e-06
-2.702501067e-06
-2.750226461e-06
-2.798917845e-06
-2.84863034e-06
-2.899422365e-06
-2.951355749e-06
-3.004495871e-06
-3.058911802e-06
-3.114676405e-06
-3.171866486e-06
-3.230562971e-06
-3.290850973e-06
-3.352820003e-06
-3.41656411e-06
-3.482182004e-06
-3.549777237e-06
-3.619458377e-06
-3.691339164e-06
-3.765538639e-06
-3.842181381e-06
-3.921397584e-06
-4.00332319e-06
-4.088099903e-06
-4.175873604e-06
-4.266816713e-06
-4.360528738e-06
-4.457780526e-06
-4.559166736e-06
-4.665581133e-06
-4.775729805e-06
-4.889786054e-06
-5.00795489e-06
-5.130449411e-06
-5.25749347e-06
-5.389321318e-06
-5.52617833e-06
-5.668321485e-06
-5.816019979e-06
-5.96955205e-06
-6.129360927e-06
-6.298098558e-06
-6.473906945e-06
-6.657069526e-06
-6.847940052e-06
-7.046273916e-06
-7.252535073e-06
-7.467515168e-06
-7.691599637e-06
-7.925179212e-06
-8.16866414e-06
-8.422481521e-06
-8.687075166e-06
-8.962906317e-06
-9.250454325e-06
-9.55021743e-06
-9.862713948e-06
-1.018848305e-05
-1.052808608e-05
-1.088210787e-05
-1.125115795e-05
-1.163587224e-05
-1.203691479e-05
-1.245497966e-05
-1.289079324e-05
-1.33451166e-05
-1.381874861e-05
-1.431252894e-05
-1.482734209e-05
-1.536412163e-05
-1.592385524e-05
-1.650759076e-05
-1.711644282e-05
-1.775160111e-05
-1.841433962e-05
-1.910602778e-05
-1.982814338e-05
-2.058228812e-05
-2.137020548e-05
-2.219380236e-05
-2.305517435e-05
-2.395663581e-05
-2.490075577e-05
-2.589039991e-05
-2.692878136e-05
-2.801952024e-05
-2.916671517e-05
-3.037502757e-05
-3.164978305e-05
-3.29970911e-05
-3.442398837e-05
-3.593860877e-05
-3.755038668e-05
-3.927029866e-05
-4.111115159e-05
-4.308792595e-05
-4.521818488e-05
-4.752256181e-05
-5.002534109e-05
-5.275515016e-05
-5.574578416e-05
-5.903718795e-05
-6.267662696e-05
-6.672007997e-05
-7.123390022e-05
-7.629679166e-05
-8.200216306e-05
-8.846093084e-05
-9.580485491e-05
-0.0001041905098
-0.0001138040102
-0.0001248666338
-0.0001376415114
-0.0001524415834
-0.0001696390638
-0.000189676693
-0.0002130811159
-0.0002404787832
-0.0002726148502
-0.0003103756299
-0.0003548152666
-0.0004071874152
-0.0004689828577
-0.0005419741545
-0.0006282686476
-0.0007303713395
-0.0008512594913
-0.0009944710804
-0.001164209683
-0.001365468766
-0.00160417896
-0.001887382495
-0.002223439714
-0.0026222735
-0.003095658449
-0.003657562799
-0.004324552618
-0.005116269243
-0.00605599307
-0.00717130873
-0.008494889611
-0.01006542218
-0.01192869454
-0.0141388769
-0.01676002669
-0.01986785572
-0.02355180274
-0.02791746067
-0.03308941589
-0.0392145633
-0.04646597036
-0.05504737232
-0.06519838852
-0.07720056148
-0.09138432606
-0.1081370263
-0.1279121017
-0.1512395652
-0.1787378937
-0.2111274426
-0.2492454648
-0.2940627933
-0.3467021739
-0.4084581681
-0.4808184187
-0.5654859277
-0.6644017796
-0.7797674947
-0.9140658393
-1.070078527
-1.250899242
-1.459936565
-1.700910144
-1.977827671
-2.294944051
-2.65669518
-3.067599622
-3.53212891
-4.054524916
-4.63857913
-5.28735634
-6.002867393
-6.785693046
-7.63456684
-8.545930498
-9.513482168
-10.52774438
-11.57568445
-12.64042422
-13.7010787
-14.73275686
-15.70676071
-16.59099549
-17.35059876
-17.94877231
-18.34777377
-18.51003534
-18.3992678
-17.98153011
-17.22611782
-16.10615046
-14.59901111
-12.68617009
-10.35315361
-7.589074064
-4.386385094
-0.7415630736
3.341107146
7.839833779
12.69292968
18.2224455
23.91322705
32.63951843
40.71294123
47.43525674
44.86544239
56.4432207
64.77966126
70.72327667
74.12470376
74.25251944
70.19326496
60.92719316
47.09821846
29.14902632
4.155971188
-23.03215331
-41.38564042
-75.12227112
-111.6531587
-148.837119
-160.6149326
-198.5344553
-237.6921591
-276.9966475
-260.6480451
-291.6417381
-314.7730612
-329.831586
-337.8737394
-341.1690283
-342.1988325
-321.4412489
-322.2504832
-317.8693486
-317.6103572
-313.744354
-304.1662054
-288.0671432
-266.0245058
-238.3841915
-205.4751498
-173.6572786
-144.1155482
-117.6898518
-94.99228236
-76.31274924
-61.18649357
-48.9313422
-38.78576519
-30.13630253
-23.29920284
-18.09012577
-13.96841323
-10.7375504
-8.224824013
-6.282561049
-4.788307177
-3.64138529
-2.765591407
-2.097474748
-1.588770212
-1.202087433
-0.9085894223
-0.6861135393
-0.5176747805
-0.3902869805
-0.2940416166
-0.2213922165
-0.1665999894
-0.1253075935
-0.09421092061
-0.07080755083
-0.05320436669
-0.03997069209
-0.03002637952
-0.02255666404
-0.01694747832
-0.01273637765
-0.009575354998
-0.007202697661
-0.00542171096
-0.004084649023
-0.003080590082
-0.002326296177
-0.001759328409
-0.001332865259
-0.001011805548
-0.0007698395889
-0.0005872494157
-0.0004492575885
-0.0003447884691
-0.0002655394003
-0.0002052845796
-0.0001593535431
-0.0001242406006
-9.731242586e-05
-7.658918295e-05
-6.058072264e-05
-4.816400085e-05
-3.849134528e-05
-3.092179945e-05
-2.49697277e-05
-2.026632861e-05
-1.653080141e-05
-1.354873113e-05
-1.115587269e-05
-9.225973901e-06
-7.661620843e-06
-6.387346378e-06
-5.344434005e-06
-4.486992742e-06
-3.778986202e-06
-3.191978494e-06
-2.703419367e-06
-2.295336013e-06
-1.953331599e-06
-1.665816135e-06
-1.423413451e-06
-1.218502089e-06
-1.044858343e-06
-8.973775162e-07
-7.718551217e-07
-6.648144599e-07
-5.733699209e-07
-4.951181777e-07
-4.280511364e-07
-3.70485895e-07
-3.210081629e-07
-2.784263846e-07
-2.417342312e-07
-2.100799702e-07
-1.827412756e-07
-1.591044211e-07
-1.38647016e-07
-1.209237218e-07
-1.055543093e-07
-9.221367017e-08
-8.062345239e-08
-7.054506203e-08
-6.177370257e-08
-5.413341819e-08
-4.747284692e-08
-4.166165584e-08
-3.65874995e-08
-3.21534595e-08
-2.827582789e-08
-2.488223725e-08
-2.191008786e-08
-1.930516523e-08
-1.702048355e-08
-1.501527815e-08
-1.325417036e-08
-1.170641584e-08
-1.034527779e-08
-9.147486988e-09
-8.092778936e-09
-7.163491026e-09
-6.344219702e-09
-5.621514432e-09
-4.983626415e-09
-4.420283084e-09
-3.922501059e-09
-3.482415606e-09
-3.09313175e-09
-2.748605109e-09
-2.443536529e-09
-2.173281742e-09
-1.933748255e-09
-1.721340535e-09
-1.532906428e-09
-1.36565869e-09
-1.217155506e-09
-1.085240003e-09
-9.680076863e-10
-8.637776288e-10
-7.710780339e-10
-6.885979109e-10
-6.151818854e-10
-5.498086533e-10
-4.915792814e-10
-4.396875966e-10
-3.934320217e-10
-3.521812632e-10
-3.153832421e-10
-2.825417815e-10
-2.532251706e-10
-2.270494047e-10
-2.036584945e-10
-1.827525862e-10
-1.640664765e-10
-1.473584506e-10
-1.324156683e-10
-1.190443198e-10
-1.070757828e-10
-9.63549204e-11
-8.674807826e-11
-7.813988574e-11
-7.042273358e-11
-6.350267254e-11
-5.729230377e-11
-5.171975149e-11
-4.67184213e-11
-4.222512948e-11
-3.818626901e-11
-3.455558401e-11
-3.129118576e-11
-2.835341063e-11
-2.57070255e-11
-2.332650465e-11
-2.11784284e-11
-1.924312599e-11
-1.749832349e-11
-1.592330257e-11
-1.450144635e-11
-1.321807109e-11
-1.205754329e-11
-1.100555767e-11
-1.005601685e-11
-9.197547594e-12
-8.418670609e-12
-7.714669379e-12
-7.076124253e-12
-6.496504083e-12
-5.969616211e-12
-5.489691015e-12
-5.054202635e-12
-4.656582327e-12
-4.29330105e-12
-3.963486418e-12
-3.661988746e-12
-3.38846692e-12
-3.138276326e-12
-2.910330012e-12
-2.701458258e-12
-2.510199318e-12
-2.334466445e-12
-2.171894223e-12
-2.022199303e-12
-1.885538465e-12
-1.759734257e-12
-1.643915805e-12
-1.537264558e-12
-1.437792075e-12
-1.347158823e-12
-1.262704992e-12
-1.184529825e-12
-1.112013826e-12
-1.04481837e-12
-9.828591718e-13
-9.251369823e-13
-8.720950838e-13
-8.222536998e-13
-7.756678028e-13
-7.325626102e-13
-6.926612982e-13
-6.557144883e-13
-6.20430988e-13
-5.873443478e-13
-5.551145356e-13
-5.256110926e-13
-4.985105042e-13
-4.724246168e-13
-4.476914021e-13
-4.248060001e-13
-4.030845485e-13
-3.832194964e-13
-3.645048568e-13
-3.469050075e-13
-3.305760342e-13
-3.156363666e-13
-3.013733939e-13
-2.877354115e-13
-2.741861448e-13
-2.615321897e-13
-2.488917591e-13
-2.367959597e-13
-2.256119902e-13
-2.151989219e-13
-2.055265878e-13
-1.961256072e-13
-1.87012516e-13
-1.783413544e-13
-1.696237107e-13
-1.621900702e-13
-1.557380496e-13
-1.490268158e-13
-1.424013029e-13
-1.362389214e-13
-1.313515273e-13
-1.256312402e-13
-1.195339265e-13
-1.142374293e-13
-1.088139169e-13
-1.037261378e-13
-9.834884772e-14
-9.329444472e-14
-8.864841366e-14
-8.514678328e-14
-8.177031434e-14
-7.852622414e-14
-7.554608603e-14
-7.295476316e-14
-6.985336084e-14
-6.645183054e-14
-6.329404213e-14
-6.020618804e-14
-5.753467171e-14
-5.487530123e-14
-5.217008275e-14
-4.948098628e-14
-4.701201448e-14
-4.473028834e-14
-4.269448892e-14
-4.086710665e-14
-3.886044499e-14
-3.728696928e-14
-3.548654067e-14
-3.389844117e-14
-3.289630349e-14
-3.212445119e-14
-3.067889087e-14
-2.922328474e-14
-2.763069135e-14
-2.628707149e-14
-2.49161728e-14
-2.345465769e-14
-2.245833222e-14
-2.114545457e-14
-2.007294453e-14
-1.921835302e-14
-1.829448314e-14
-1.7458251e-14
-1.638096959e-14
-1.542223982e-14
-1.488059813e-14
-1.438628958e-14
-1.369404256e-14
-1.327806081e-14
-1.22571491e-14
-1.129988462e-14
-1.050603446e-14
-1.009146367e-14
-9.55095737e-15
-8.95853801e-15
-8.970283729e-15
-8.368363837e-15
-7.900953977e-15
-7.568312696e-15
-7.085832483e-15
-6.370658721e-15
-5.812742279e-15
-5.377405708e-15
-5.119487372e-15
-5.008818387e-15
-5.129384555e-15
-4.816047723e-15
-4.323522512e-15
-4.1700185e-15
-3.877148324e-15
-3.456830574e-15
-3.189271392e-15
-2.775608542e-15
-2.597585572e-15
-2.671919177e-15
-2.361614897e-15
-1.964735347e-15
-1.818115075e-15
-1.395103397e-15
-1.257767009e-15
-1.221747267e-15
-1.184113336e-15
-1.043061723e-15
-9.304081459e-16
-3.429332928e-16
-1.684838133e-16
-1.717106902e-16
-2.194310505e-16
-2.978061099e-16
-2.39696133e-16
1.511218591e-16
3.962715042e-16
7.127054778e-16
7.906097494e-16
8.224754675e-16
7.133091964e-16
5.487480641e-16
3.14864748e-16
3.047016667e-17
-1.847005241e-16
-1.594734656e-16
-9.410159635e-17
5.126255541e-17
3.568109283e-16
4.57563539e-16
5.695878018e-16
6.490961525e-16
7.016489517e-16
6.706512589e-16
8.163847859e-16
7.68958042e-16
1.266967683e-15
1.564190665e-15
1.636602493e-15
1.636270996e-15
1.565742208e-15
1.543469281e-15
1.516795199e-15
1.690254967e-15
1.692827326e-15
1.580097492e-15
1.506664849e-15
1.248354873e-15
1.027262529e-15
1.158216814e-15
1.15383974e-15
1.254615656e-15
1.222488555e-15
1.147357252e-15
1.172110208e-15
1.136249217e-15
1.046364887e-15
9.564046726e-16
8.97882441e-16
8.681024111e-16
6.759187382e-16
7.60975007e-16
1.018187246e-15
1.097452613e-15
1.208057972e-15
1.138805726e-15
1.039188142e-15
9.957880995e-16
9.962534551e-16
1.038159374e-15
1.084408602e-15
1.03638419e-15
9.970190808e-16
8.212777363e-16
7.595888278e-16
6.859810476e-16
7.073811201e-16
6.130349343e-16
6.754810579e-16
9.375633983e-16
9.671046894e-16
9.03655385e-16
8.092731391e-16
8.014658139e-16
8.346552917e-16
9.73720448e-16
9.277166094e-16
8.110214232e-16
7.147450273e-16
6.063297048e-16
6.074418477e-16
7.50936835e-16
9.620652733e-16
1.016195468e-15
1.005077805e-15
9.813400229e-16
1.022895323e-15
9.63271687e-16
8.262628044e-16
6.486921416e-16
5.917588937e-16
5.20160306e-16
5.335900912e-16
5.552035675e-16
4.956192377e-16
3.928704496e-16
2.963324393e-16
4.225101282e-16
5.481227531e-16
7.151595505e-16
7.296439862e-16
7.356408635e-16
6.386246978e-16
7.342135119e-16
8.096384897e-16
8.969926321e-16
8.380680028e-16
8.063793905e-16
8.592576935e-16
8.376191054e-16
7.017192665e-16
5.119621836e-16
4.025692893e-16
2.537612375e-16
2.341632902e-16
2.165212367e-16
2.080875471e-16
2.433335963e-16
3.350577014e-16
3.695105111e-16
5.042805553e-16
5.418283181e-16
5.407321286e-16
5.163135455e-16
4.525924621e-16
4.916717119e-16
4.473390892e-16
3.35865968e-16
2.789592385e-16
2.576283724e-16
1.449022424e-16
4.423457479e-17
4.146264848e-17
8.228446261e-17
7.295551892e-17
1.004091352e-16
1.430352853e-16
1.950483041e-16
1.870371413e-16
1.507876611e-16
1.167479655e-16
5.819325298e-17
9.220862997e-18
4.845828828e-17
1.638257922e-16
2.444950941e-16
3.447812118e-16
4.33902486e-16
3.892859087e-16
2.641644338e-16
1.486955818e-16
1.810191457e-16
8.034158656e-17
8.68033345e-17
5.300759147e-17
7.060922746e-17
1.140551181e-16
1.234708931e-16
8.917218059e-17
3.487672505e-17
2.072929172e-17
6.910621942e-18
-2.795384922e-17
-2.938090701e-17
3.499007525e-17
1.350265963e-16
2.12916727e-16
2.451211005e-16
1.974725767e-16
1.842744454e-16
1.505555472e-16
1.03164158e-16
1.393666874e-16
1.831036329e-16
1.24144896e-16
1.444445035e-16
1.65564603e-16
1.730170943e-16
-5.909359132e-16
7.327234611e-17
2.944623705e-16
4.111767968e-17
8.69831506e-17
-9.187392937e-17
-4.127632746e-17
4.071897052e-16
2.65348891e-16
2.466770432e-17
3.369507115e-16
-7.295085862e-17
-2.494247132e-16
-6.078425294e-17
7.062967328e-17
-9.317298161e-18
-1.106181357e-16
4.116747992e-17
3.610971103e-17
1.128192689e-16
-8.802645857e-18
2.277396227e-17
-5.484086987e-17
1.104189502e-17
-1.608884818e-17
1.962040237e-18
5.70026344e-18
-5.196295452e-18
-2.512356053e-18
-1.690759355e-18
-5.373314623e-18
-6.66482486e-18
-5.478169628e-18
2.858253623e-18
2.933537245e-18
-4.799888057e-18
-1.441923355e-17
-8.429701222e-18
-6.040472965e-18
-7.950583342e-18
-1.237652738e-17
-9.924754317e-18
-8.510185124e-18
-6.837431735e-18
-1.55015446e-17
-1.764813525e-17
-1.048702867e-17
-1.08975956e-17
-1.271385461e-17
-3.36429306e-18
-1.566285016e-17
-1.191492208e-17
-1.576002973e-17
1.294789021e-17
8.460817135e-18
-1.599802474e-17
-1.56786007e-17
-1.860382685e-18
-8.619718653e-18
-9.14574397e-18
-6.710376977e-18
-9.709234182e-18
-2.992999973e-18
-7.799190329e-18
-7.54885021e-18
-6.337809366e-18
-4.568094188e-18
-5.183094563e-18
-4.961298268e-18
-4.301042124e-18
-4.273772843e-18
-4.292885258e-18
-3.482768446e-18
-3.321499759e-18
-5.475087364e-18
-4.209057323e-18
2.028557397e-18
-3.40798328e-18
-2.046095906e-18
-4.23856543e-18
2.986936897e-19
-3.642662288e-18
-4.713385383e-18
-5.900639792e-19
-5.042964631e-19
-2.648240418e-18
-1.484807189e-18
-2.51906284e-18
-1.104642307e-18
-1.513311209e-18
-7.251213801e-19
-6.075614599e-19
-3.422145314e-19
-4.54976482e-19
-2.066926661e-19
-2.158393957e-19
-3.50163093e-19
-2.629435634e-19
-1.797503967e-19
1.267387606e-20
1.646859342e-21
-1.803265101e-20
7.086986157e-20
3.928727829e-20
2.040931306e-20
-2.06165363e-20
2.20647616e-20
-4.242456379e-20
1.632942752e-19
-2.118918719e-22
5.146709264e-20
6.387255863e-20
-3.105115276e-20
5.49079043e-20
-5.427292429e-20
-5.234087297e-21
-1.203692432e-20
1.864396686e-21
7.371245873e-21
-1.346409703e-20
-6.775180863e-20
4.924048789e-21
-6.218780088e-20
1.509134614e-20
4.142634865e-20
7.81043116e-22
-4.400535202e-20
2.885979197e-20
2.052892397e-20
2.723348966e-21
8.855899201e-21
-6.976060639e-20
1.499606894e-19
-2.266565312e-21
8.288487747e-21
2.686815501e-20
-6.356220742e-20
1.10099868e-20
3.801660713e-20
1.319073829e-19
-9.859728109e-20
6.326029015e-20
-1.805029124e-20
1.249584737e-19
2.854877988e-20
-1.704297629e-19
-1.125687092e-19
1.714980912e-19
4.591527819e-20
6.501962705e-20
1.135385921e-20
6.53711797e-20
-1.4198957e-19
-1.548145385e-19
-2.19653595e-20
7.721992208e-21
5.122278893e-20
9.881293084e-21
1.780048413e-19
2.346230775e-21
6.268149595e-20
1.363276579e-20
8.422778646e-20
7.552480108e-21
-1.037621598e-19
-4.699371025e-20
-4.72170857e-20
9.147043899e-20
4.158222774e-20
1.040396875e-19
-1.370799471e-19
-2.877044864e-20
3.117822347e-20
-1.971006394e-20
4.030880441e-21
-1.974692943e-19
-6.381936102e-20
2.521853829e-20
7.343850185e-21
4.751702699e-21
1.133283655e-19
2.027916245e-21
-4.427438809e-20
1.727523229e-20
2.262638664e-19
-6.499152326e-20
7.851631145e-20
-7.03880187e-21
-1.451637523e-20
-7.380315244e-20
1.153568934e-19
1.209113516e-19
-3.393066123e-20
9.326483706e-20
1.976357648e-21
3.674554831e-20
-3.275121715e-20
3.276388418e-21
-7.838700503e-21
-7.705699683e-20
-3.696813177e-20
-8.852203506e-20
3.360621801e-21
-4.782801514e-20
-8.138331452e-20
-7.750985203e-20
-4.581072303e-20
7.753699695e-20
2.788552557e-20
-3.40807401e-20
5.656211548e-20
4.337499453e-20
-3.515355418e-20
2.648028519e-20
2.528389416e-20
1.24384624e-19
2.627960183e-20
3.040970719e-20
-6.681181898e-21
1.255754336e-20
3.71481031e-20
1.623525862e-20
2.928571259e-20
2.664586395e-20
2.707078515e-20
4.981281572e-20
5.252539026e-20
3.885169998e-20
-3.875673336e-20
4.193670047e-20
3.315303009e-20
9.703997421e-21
2.902476826e-20
7.208903102e-20
8.140219626e-20
-7.151112911e-20
7.61234926e-20
-7.24674514e-21
2.117933045e-20
4.12326589e-20
-1.31725825e-19
-1.211687679e-20
-8.679321005e-20
1.836341217e-20
-7.580348373e-20
-3.661653428e-20
-2.482325942e-19
-1.575099509e-19
7.467404431e-20
-6.065126599e-20
)
;

boundaryField
{
    inlet
    {
        type            calculated;
        value           uniform 0;
    }
    outlet
    {
        type            calculated;
        value           uniform -6.007513742e-20;
    }
    wall
    {
        type            empty;
    }
}


// ************************************************************************* //
