/*--------------------------------*- C++ -*----------------------------------*\
  =========                 |
  \\      /  F ield         | OpenFOAM: The Open Source CFD Toolbox
   \\    /   O peration     | Website:  https://openfoam.org
    \\  /    A nd           | Version:  7
     \\/     M anipulation  |
\*---------------------------------------------------------------------------*/
FoamFile
{
    version     2.0;
    format      ascii;
    class       volVectorField;
    location    "0.000558243009";
    object      ddt0(rho,U);
}
// * * * * * * * * * * * * * * * * * * * * * * * * * * * * * * * * * * * * * //

dimensions      [1 -2 -2 0 0 0 0];

internalField   nonuniform List<vector> 
1500
(
(3198.833837 0 0)
(14579.03485 2.448374532e-18 2.448374532e-18)
(25698.29549 -5.039546186e-20 -5.039546186e-20)
(34491.06065 -5.344396563e-18 6.953664243e-20)
(45441.92565 0 6.531496481e-18)
(53558.64095 0 0)
(62261.15447 7.67006089e-18 -7.67006089e-18)
(67914.17363 -9.534487804e-20 -7.327947843e-18)
(73099.16059 8.692337457e-20 6.767616897e-18)
(75472.98336 -7.34032165e-20 -5.788376908e-18)
(76655.76351 -8.813206569e-18 -8.756242284e-18)
(75352.43258 2.972596917e-18 2.934901005e-18)
(72405.9073 1.345587272e-18 1.363325685e-18)
(67384.00208 -2.616809836e-21 -2.037377361e-19)
(60654.53322 1.736331646e-18 2.201865989e-20)
(52353.77153 3.010090043e-18 3.04977102e-18)
(42715.32239 -4.26151677e-18 0)
(32058.44748 0 0)
(20695.59062 6.20561427e-18 6.20561427e-18)
(8962.204795 -6.962024587e-18 -1.383576278e-17)
(-2803.455422 -7.190274601e-18 -7.095487716e-18)
(-14284.2014 7.646090433e-18 1.529218087e-17)
(-25191.29407 0 0)
(-35274.7327 8.151536102e-18 -8.151536102e-18)
(-44331.20807 -8.335437478e-18 -8.124031827e-18)
(-52207.39161 -8.026177497e-18 8.237790163e-18)
(-58800.54336 8.069007128e-18 8.069007128e-18)
(-64055.90745 0 0)
(-67961.09944 -7.775201204e-18 -7.775201204e-18)
(-70539.50897 7.485782714e-18 9.492823123e-20)
(-71841.69096 6.664182722e-18 6.752034448e-18)
(-71935.37696 -1.209532526e-17 0)
(-70899.93718 6.548303287e-20 0)
(-68816.22618 -4.941541793e-20 -3.847351539e-18)
(-65761.34017 -4.605099891e-18 -2.287667386e-18)
(-61808.83373 6.514020686e-21 0)
(-57022.96677 -1.548606217e-18 0)
(-51460.78695 -3.877212883e-18 0)
(-45177.02085 -6.283429577e-18 -6.365184091e-18)
(-38225.58015 0 -8.847136021e-18)
(-30664.32399 0 0)
(-22560.9109 0 0)
(-13995.69494 0 1.651405366e-17)
(-5064.313958 0 -2.391899292e-19)
(4120.125239 -2.036721889e-17 -4.047284105e-17)
(13427.92856 2.782827353e-19 2.19445964e-17)
(22714.86971 -2.884156872e-19 2.187839685e-17)
(31825.09222 2.91417781e-19 -2.239755603e-17)
(40595.97088 2.205741635e-17 0)
(48863.54566 0 0)
(56467.81624 0 0)
(63258.38707 0 0)
(69100.03201 0 0)
(73876.33248 0 0)
(77493.85683 0 0)
(79884.79988 6.051704291e-18 6.051704291e-18)
(81007.67049 -3.222766305e-20 -3.222766305e-20)
(80848.8567 -1.401645581e-20 -1.401645581e-20)
(79422.00148 5.994450738e-20 5.994450738e-20)
(76766.86385 1.617762561e-17 1.617762561e-17)
(72947.86649 -1.469702365e-19 -1.469702365e-19)
(68051.90777 -1.432279448e-17 -1.432279448e-17)
(62185.77268 0 -1.72864235e-17)
(55472.82448 1.973019304e-17 2.534158516e-19)
(48049.90093 -2.800797065e-19 -2.800797065e-19)
(40063.59829 -2.318967364e-17 3.017233841e-19)
(31666.10297 -2.477357466e-17 -3.181933848e-19)
(23011.24416 -2.532299421e-17 -2.532299421e-17)
(14250.32884 2.613916444e-17 2.613916444e-17)
(5527.899707 -3.372277623e-19 -3.372277623e-19)
(-3021.986688 -2.569927261e-17 -2.569927261e-17)
(-11279.20709 2.551312325e-17 5.10262465e-17)
(-19140.44681 4.91620218e-17 4.884426327e-17)
(-26521.23657 -3.052137502e-19 -2.37630082e-17)
(-33357.11946 -4.49727647e-17 -4.49727647e-17)
(-39603.92056 -2.111762938e-17 2.747637075e-19)
(-45237.05065 0 -2.579784088e-19)
(-50249.86127 1.874285356e-17 2.407332635e-19)
(-54651.21661 3.45484515e-17 3.45484515e-17)
(-58462.68991 1.581823342e-17 1.581823342e-17)
(-61714.91289 -1.465455436e-17 -1.465455436e-17)
(-64444.20363 -1.309248939e-17 -2.635532713e-17)
(-66689.03642 0 1.197582223e-17)
(-68486.5723 0 1.004012545e-17)
(-69870.51834 0 1.113193018e-19)
(-70868.38693 0 -8.822949307e-20)
(-71499.71843 -9.742480921e-18 -1.455115532e-17)
(-71775.92491 6.773563546e-20 6.773563546e-20)
(-71699.89818 2.711101505e-19 2.711101505e-19)
(-71266.29648 -2.646725153e-18 0)
(-70462.90483 7.350603877e-20 0)
(-69272.1451 8.969195993e-18 0)
(-67672.89026 1.271626653e-17 0)
(-65642.60329 -2.129682521e-19 -1.658110898e-17)
(-63159.49951 -2.036935549e-17 2.650294335e-19)
(-60204.66114 0 -3.187662103e-19)
(-56763.97944 2.906519381e-17 2.943850629e-17)
(-52829.81459 3.287217704e-17 6.574435408e-17)
(-48402.31701 -3.744228775e-17 -7.48845755e-17)
(-43490.33297 -4.08784117e-17 -4.034653735e-17)
(-38111.86695 -4.512258181e-17 4.454302788e-17)
(-32294.11118 6.22951387e-19 0)
(-26073.05882 5.081413487e-17 0)
(-19492.75821 0 0)
(-12604.28193 0 0)
(-5464.495275 5.738086041e-17 5.738086041e-17)
(1865.273879 -7.475344264e-19 5.745329374e-17)
(9320.57767 -5.765210722e-17 -5.84022262e-17)
(16835.11423 5.797421191e-17 7.446213351e-19)
(24341.85857 5.61841081e-17 -7.310174157e-19)
(31774.01152 -5.523128474e-17 -5.452189321e-17)
(39065.7531 6.799068796e-19 5.293561668e-17)
(46152.81256 -6.427970646e-19 -6.427970646e-19)
(52972.88189 -4.598840212e-17 -4.598840212e-17)
(59465.93559 -4.25830459e-17 -4.25830459e-17)
(65574.49016 4.88913682e-19 3.855444825e-17)
(71243.88371 6.571136669e-17 3.221859264e-17)
(76422.62505 -3.548604392e-19 -2.727357473e-17)
(81062.82522 2.798604156e-19 0)
(85120.73201 -2.003365441e-19 1.559771861e-17)
(88557.37971 1.169772344e-19 8.99054593e-18)
(91339.30971 -3.054009791e-20 -2.377772074e-18)
(93439.29518 4.468341431e-18 -5.813811882e-20)
(94837.0607 0 -1.138674043e-17)
(95519.89478 1.857283334e-17 3.714566668e-17)
(95483.11586 -3.283281185e-19 2.490606128e-17)
(94730.36969 -3.200923846e-17 -3.200923846e-17)
(93273.68634 0 0)
(91133.32499 4.54605929e-17 4.54605929e-17)
(88337.41171 -6.612776832e-19 5.082389408e-17)
(84921.3956 -5.635815922e-17 -5.709144336e-17)
(80927.38064 0 -1.236413898e-16)
(76403.37063 -6.681993245e-17 -6.596169567e-17)
(71402.49509 9.099524079e-19 7.084628296e-17)
(65982.25832 7.330881291e-17 -9.538300729e-19)
(60203.84361 -7.703930478e-17 -7.604981201e-17)
(54131.4963 1.016642327e-18 7.915301396e-17)
(47831.98053 1.601377277e-16 1.601377277e-16)
(41374.08587 -8.23722294e-17 -8.23722294e-17)
(34828.14665 -7.928040014e-17 -7.928040014e-17)
(28265.52299 7.967861651e-17 7.967861651e-17)
(21757.98203 -7.936878221e-17 0)
(15376.92867 7.834016655e-17 7.734672719e-17)
(9192.431038 7.275714595e-17 -9.591310145e-19)
(3272.020747 -7.04766634e-17 -7.04766634e-17)
(-2320.739754 -6.755498924e-17 0)
(-7527.900875 -6.241731711e-17 -6.322943333e-17)
(-12298.92205 5.850466582e-17 7.514353634e-19)
(-16592.53529 5.279932739e-17 5.279932739e-17)
(-20378.57187 4.829711977e-17 0)
(-23639.61773 -5.532543902e-19 0)
(-26372.36511 -3.748060059e-17 0)
(-28588.52503 3.3132903e-17 3.3132903e-17)
(-30315.17758 -3.689323826e-19 -3.689323826e-19)
(-31594.46979 -2.456993454e-17 -2.456993454e-17)
(-32482.59503 0 0)
(-33048.05053 0 0)
(-33369.19584 0 0)
(-33531.20387 1.756175433e-17 1.756175433e-17)
(-33622.54667 -2.31464588e-19 -2.31464588e-19)
(-33731.17186 -1.912138147e-17 -1.912138147e-17)
(-33940.59482 0 0)
(-34326.14247 0 -2.432276474e-17)
(-34951.55978 0 3.546820889e-19)
(-35866.20347 -3.118546612e-17 -4.005481129e-19)
(-37103.02086 -3.436052513e-17 -6.916811867e-17)
(-38677.44858 0 4.912073397e-19)
(-40587.30939 0 4.073181287e-17)
(-42813.72852 4.364378784e-17 4.364378784e-17)
(-45323.00458 4.462193116e-17 4.462193116e-17)
(-48069.30311 0 0)
(-50997.97721 0 0)
(-54049.26114 4.370430241e-17 0)
(-57162.05596 -5.264741439e-19 0)
(-60277.51232 -3.674278893e-17 0)
(-63342.12867 0 0)
(-66310.13042 0 0)
(-69144.95201 -2.074575821e-17 -2.074575821e-17)
(-71819.72359 -1.385285935e-17 -1.385285935e-17)
(-74316.76728 6.968672697e-18 6.968672697e-18)
(-76626.19163 -3.127444619e-19 -3.127444619e-19)
(-78743.76252 7.725224447e-18 7.725224447e-18)
(-80668.29706 -1.952055316e-19 -1.952055316e-19)
(-82398.87422 2.918183888e-19 -2.242848607e-17)
(-83932.16507 -3.893911846e-19 0)
(-85260.16985 -7.560680265e-17 0)
(-86368.60145 4.658882067e-17 4.599801982e-17)
(-87236.08185 1.071343115e-16 5.356715575e-17)
(-87834.23355 0 0)
(-88128.65463 0 0)
(-88080.68245 -1.635946519e-16 -1.635946519e-16)
(-87649.78441 -8.966647491e-17 -8.966647491e-17)
(-86796.36663 1.014387272e-16 1.014387272e-16)
(-85484.77218 0 0)
(-83686.24384 -1.25264217e-16 0)
(-81381.65361 1.755750657e-18 0)
(-78563.82875 2.939938543e-16 1.479470403e-16)
(-75239.34308 -2.038892909e-18 -2.038892909e-18)
(-71429.67462 2.167944613e-18 2.167944613e-18)
(-67171.63764 1.755093684e-16 -2.283566813e-18)
(-62517.02016 -1.854585316e-16 -1.830764924e-16)
(-57531.34504 -1.890619196e-16 0)
(-52291.6788 1.957625807e-16 1.957625807e-16)
(-46883.4435 -2.543461696e-18 1.954830987e-16)
(-41396.22009 2.546280242e-18 -1.982467868e-16)
(-35918.62991 -2.523372372e-18 -1.939399385e-16)
(-30532.50998 -1.903618596e-16 -1.928386862e-16)
(-25306.75664 1.876655474e-16 1.900759306e-16)
(-20291.39679 3.603951921e-16 3.58065775e-16)
(-15512.61205 -3.511465928e-16 -3.489059152e-16)
(-10969.56071 -3.286010781e-16 -1.632246724e-16)
(-6633.866096 1.591161245e-16 -2.070273114e-18)
(-2452.540226 -1.559573996e-16 -1.539542827e-16)
(1645.145544 1.955033139e-18 3.044248464e-16)
(5736.751242 1.481437885e-16 1.462162735e-16)
(9892.198852 0 -1.474011428e-16)
(14156.87551 0 0)
(18534.14257 0 1.491370218e-16)
(22969.69127 0 -1.891961918e-18)
(27340.61397 0 -1.403771493e-16)
(31452.18555 0 1.321283282e-16)
(35045.08007 0 -1.484231286e-18)
(37815.01088 9.148001651e-17 1.17497341e-18)
(39445.58151 5.895994365e-17 5.895994365e-17)
(39653.50664 -2.130816914e-17 0)
(38243.42433 2.105533702e-17 0)
(35167.49249 -6.415590123e-17 0)
(30583.02814 1.304850474e-18 1.015927674e-16)
(24899.96381 -1.628209541e-18 -1.628209541e-18)
(18809.0667 1.337183505e-16 1.337183505e-16)
(13282.01721 1.068713704e-16 1.068713704e-16)
(9535.728988 -5.240686911e-17 -5.240686911e-17)
(8955.800946 0 0)
(12977.72539 -1.775048015e-16 -1.775048015e-16)
(22929.11693 4.48290585e-18 4.48290585e-18)
(39841.7851 5.406633674e-16 5.406633674e-16)
(64247.56873 7.581727568e-16 7.581727568e-16)
(95977.94086 -9.712126057e-16 -9.712126057e-16)
(133989.5048 -1.09394934e-15 -1.09394934e-15)
(176243.764 -1.565393674e-17 -1.565393674e-17)
(219662.0127 1.559488559e-17 1.229764394e-15)
(260187.7759 2.141813917e-15 1.050141325e-15)
(292957.9157 -1.007032372e-17 -7.739794772e-16)
(312618.8543 -3.128888535e-16 0)
(313745.8603 3.253108048e-16 -3.253108048e-16)
(291389.9549 1.111717338e-15 1.140646972e-15)
(241766.8644 -4.09510287e-15 1.994954041e-15)
(162838.4471 -2.950232391e-15 3.889201229e-17)
(54683.04006 3.945223366e-15 -5.133170492e-17)
(-116702.9375 0 -2.223133055e-14)
(-163111.9466 -6.281668117e-14 6.186828737e-14)
(-168707.0397 -1.84732937e-25 1.064981037e-13)
(-178508.9317 5.372388783e-14 -5.372388783e-14)
(-189176.9968 -5.408297617e-14 -5.408297617e-14)
(-199010.8159 -6.040628912e-30 6.040628912e-30)
(-209503.9937 5.472686171e-14 5.472686171e-14)
(-219684.9299 0 3.818657458e-25)
(-230111.9613 -5.531291995e-14 -5.531291995e-14)
(-240489.3529 -3.85663136e-25 1.111598308e-13)
(-250943.0364 5.583193143e-14 -5.583193143e-14)
(-261422.8947 -5.606604044e-14 -5.606604044e-14)
(-271938.5193 4.883729141e-48 -4.883729141e-48)
(-282483.6153 5.648114421e-14 5.648114421e-14)
(-293054.8424 -5.666123984e-14 5.666123984e-14)
(-303648.4326 -1.971427342e-25 -1.136450489e-13)
(-314260.5671 5.696461737e-14 5.696461737e-14)
(-324887.342 0 3.802767153e-29)
(-335524.7941 -5.718969995e-14 -5.718969995e-14)
(-346168.8842 -1.987019254e-25 1.987019254e-25)
(-356815.501 5.733345015e-14 5.733345015e-14)
(-367460.465 -5.737388215e-14 5.737388215e-14)
(-378099.5279 -3.982301692e-25 -1.147857046e-13)
(-388728.3689 5.738998736e-14 5.738998736e-14)
(-399342.597 0 2.547514043e-29)
(-409937.7581 -5.731727173e-14 -5.731727173e-14)
(-420509.3275 3.97209619e-25 -3.97209619e-25)
(-431052.7132 5.715279851e-14 5.715279851e-14)
(-441563.2553 -5.70352462e-14 5.70352462e-14)
(-452036.2298 6.316466493e-30 -1.137873446e-13)
(-462466.8477 5.672772239e-14 5.672772239e-14)
(-472850.251 0 3.922920017e-25)
(-483181.5219 -5.632129198e-14 -5.632129198e-14)
(-493455.6784 -3.891464553e-25 3.891464553e-25)
(-503667.6791 5.581318954e-14 5.581318954e-14)
(-513812.4202 -5.552016481e-14 5.552016481e-14)
(-523884.7298 -6.128510286e-30 -1.104014266e-13)
(-533879.3874 5.485450895e-14 5.485450895e-14)
(-543791.1126 0 -3.780394738e-25)
(-553614.5587 -5.408055796e-14 -5.408055796e-14)
(-563344.3315 1.861553109e-25 1.073043631e-13)
(-572974.9812 5.319579399e-14 -5.319579399e-14)
(-582501.0022 -5.271109464e-14 -5.271109464e-14)
(-591916.8359 -3.622007086e-25 3.622007086e-25)
(-601216.8731 5.165558502e-14 5.165558502e-14)
(-610395.4535 0 7.089357206e-25)
(-619446.8669 -5.048336342e-14 -5.048336342e-14)
(-628365.3589 1.729561048e-25 9.97055969e-14)
(-637145.1278 4.919224442e-14 -4.919224442e-14)
(-645780.3241 -4.850144504e-14 -4.850144504e-14)
(-654265.0594 -1.65781312e-25 1.65781312e-25)
(-662593.401 4.702812412e-14 4.702812412e-14)
(-670759.3782 0 6.417800754e-25)
(-678756.9827 -4.543093911e-14 -4.543093911e-14)
(-686580.1647 -1.546963698e-25 8.917067879e-14)
(-694222.8446 4.370812071e-14 -4.370812071e-14)
(-701678.9103 -4.279908343e-14 -4.279908343e-14)
(-708942.213 -4.647175527e-30 4.647175527e-30)
(-716006.575 4.088479609e-14 4.088479609e-14)
(-722865.7965 0 0)
(-729513.647 -3.884106024e-14 -3.884106024e-14)
(-735943.8716 -1.31041869e-25 7.554049439e-14)
(-742150.1979 3.666661032e-14 -3.666661032e-14)
(-748126.3307 -3.553001641e-14 -3.553001641e-14)
(-753865.9527 1.192190146e-25 -1.192190146e-25)
(-759362.7391 3.315747678e-14 3.315747678e-14)
(-764610.3496 0 2.214986475e-25)
(-769602.4298 -3.065177946e-14 -3.065177946e-14)
(-774332.6181 -2.112545174e-70 5.869755861e-14)
(-778794.5473 2.801225237e-14 -2.801225237e-14)
(-782981.8462 -2.664214395e-14 -2.664214395e-14)
(-786888.1379 -1.751266545e-25 1.751266545e-25)
(-790507.0477 2.380102226e-14 2.380102226e-14)
(-793832.2074 -2.232996086e-14 2.232996086e-14)
(-796857.2506 7.224968701e-26 -4.165044174e-14)
(-799575.8214 1.928681043e-14 1.928681043e-14)
(-801981.5738 0 -1.229089742e-25)
(-804068.1686 -1.610907453e-14 -1.610907453e-14)
(-805829.2909 -5.020070217e-26 5.020070217e-26)
(-807258.6472 1.279708083e-14 1.279708083e-14)
(-808349.9562 -1.109090091e-14 1.109090091e-14)
(-809096.9645 3.244411775e-26 -1.870276052e-14)
(-809493.4505 7.578624174e-15 7.578624174e-15)
(-809533.2121 0 4.005778508e-26)
(-809210.0887 0 -3.933893681e-15)
(-808517.9551 0 1.430940896e-26)
(-807450.7195 0 1.578427739e-16)
(-806002.3367 1.779007537e-15 -1.779007537e-15)
(-804166.8009 2.600803502e-26 7.496305717e-15)
(-801938.1607 -5.749381455e-15 -5.749381455e-15)
(-799310.5106 0 -1.728054716e-30)
(-796277.9991 9.847164834e-15 9.847164834e-15)
(-792834.8364 -2.65192669e-30 2.65192669e-30)
(-788975.2908 -1.407034383e-14 -1.407034383e-14)
(-784693.6945 1.622825473e-14 -1.622825473e-14)
(-779984.4469 1.277870114e-25 3.683327703e-14)
(-774842.0193 -2.063516741e-14 -2.063516741e-14)
(-769260.9519 0 -1.587861571e-25)
(-763235.8636 0 2.516126542e-14)
(-756761.4537 0 -5.493618718e-14)
(-749832.5096 0 2.980358308e-14)
(-742443.8993 3.21673193e-14 3.21673193e-14)
(-734590.5856 3.836805173e-30 -3.836805173e-30)
(-726267.6277 -3.697777881e-14 -3.697777881e-14)
(-717470.1774 0 2.735560418e-25)
(-708193.492 4.189578471e-14 4.189578471e-14)
(-698432.9285 1.478613397e-29 -8.878776989e-14)
(-688183.9557 -4.69173555e-14 4.69173555e-14)
(-677442.154 4.946565166e-14 4.946565166e-14)
(-666203.2205 1.805438085e-25 -1.805438085e-25)
(-654462.973 -5.463444715e-14 -5.463444715e-14)
(-642217.3472 0 3.972650662e-25)
(-629462.4083 5.989553296e-14 5.989553296e-14)
(-616194.3524 2.170386032e-25 -1.251182403e-13)
(-602409.5082 -6.524386353e-14 6.524386353e-14)
(-588104.3407 6.794908398e-14 6.794908398e-14)
(-573275.4597 7.846399352e-30 -7.846399352e-30)
(-557919.6203 -7.341814001e-14 -7.341814001e-14)
(-542033.7211 0 5.286085395e-25)
(-525614.817 7.89604614e-14 7.89604614e-14)
(-508660.1234 -2.836159214e-25 -1.635143772e-13)
(-491167.007 -8.456990367e-14 8.456990367e-14)
(-473133.0035 8.73977889e-14 8.73977889e-14)
(-454555.819 -3.130829147e-25 3.130829147e-25)
(-435433.3254 -9.309569873e-14 -9.309569874e-14)
(-415763.5695 0 -9.596398936e-14)
(-395544.7806 0 1.976879614e-13)
(-374775.3689 0 -1.017347556e-13)
(-353453.9302 0 7.26053781e-25)
(-331579.2526 1.075448881e-13 1.075448881e-13)
(-309150.3136 3.83243132e-25 -3.83243132e-25)
(-286166.2931 -1.133866525e-13 -1.133866525e-13)
(-262626.5695 1.163168929e-13 -1.163168929e-13)
(-238530.727 4.137649568e-25 2.38503994e-13)
(-213878.5582 -1.22190909e-13 -1.22190909e-13)
(-188670.0632 0 5.557001724e-29)
(-162905.4632 1.280758383e-13 1.280758383e-13)
(-136585.1981 -1.454610278e-29 1.454610278e-29)
(-109709.9297 -1.339628446e-13 -1.339628446e-13)
(-82280.5474 1.369042811e-13 -1.369042811e-13)
(-54298.17056 9.703542379e-25 2.79685567e-13)
(-25764.14894 -1.427771615e-13 -1.427771615e-13)
(3319.929409 0 -2.022144515e-24)
(32952.23373 1.486286884e-13 1.486286884e-13)
(63130.69353 1.051543316e-24 -1.051543316e-24)
(93852.98849 -1.544489642e-13 -1.544489642e-13)
(125116.5482 1.573442094e-13 -1.573442094e-13)
(156918.5518 5.55937423e-25 3.204555959e-13)
(189255.9154 -1.630984109e-13 -1.630984109e-13)
(222125.2948 0 -3.684934832e-29)
(255523.0909 1.687953467e-13 1.687953467e-13)
(289445.4343 1.905353057e-29 -1.905353057e-29)
(323888.1819 -1.744241225e-13 -1.744241225e-13)
(358846.9221 1.772094715e-13 -1.772094715e-13)
(394316.9664 6.243887817e-25 3.599471452e-13)
(430293.3526 -1.827149903e-13 -1.827149903e-13)
(466770.8375 0 -1.286777218e-24)
(503743.8848 1.881239526e-13 1.881239526e-13)
(541206.6785 -6.619095583e-25 -3.815770924e-13)
(579153.1185 -1.934245576e-13 1.934245576e-13)
(617576.8051 1.960304747e-13 1.960304747e-13)
(656471.0467 6.890266702e-25 -6.890266702e-25)
(695828.8586 -2.011459095e-13 -2.011459095e-13)
(735642.9533 0 -1.413121947e-24)
(775905.7422 2.061224823e-13 2.061224823e-13)
(816609.3387 -7.235465696e-25 -4.171095474e-13)
(857745.5468 -2.109476185e-13 2.109476185e-13)
(899305.861 2.132994139e-13 2.132994139e-13)
(941281.4767 4.787471486e-29 -4.787471486e-29)
(983663.2677 -2.178733957e-13 -2.178733957e-13)
(1026441.797 0 1.527050664e-24)
(1069607.321 2.222636847e-13 2.222636847e-13)
(1113149.775 -7.784947288e-25 -4.48771657e-13)
(1157058.775 -2.264570914e-13 2.264570914e-13)
(1201323.62 2.284758024e-13 2.284758024e-13)
(1245933.294 -4.552707137e-47 4.552707137e-47)
(1290876.453 -2.323488472e-13 -2.323488472e-13)
(1336141.438 0 -1.625087585e-24)
(1381716.265 2.359914518e-13 2.359914518e-13)
(1427588.627 8.24816965e-25 -4.754441797e-13)
(1473745.89 -2.39390008e-13 2.39390008e-13)
(1520175.1 2.40993493e-13 2.40993493e-13)
(1566862.976 8.414209165e-25 -8.414209165e-25)
(1613795.912 -2.440002938e-13 -2.440002938e-13)
(1660959.981 2.454001684e-13 -2.454001684e-13)
(1708340.926 2.739239148e-29 4.934574562e-13)
(1755924.167 -2.479842485e-13 -2.479842485e-13)
(1803694.799 0 -1.106514901e-28)
(1851637.594 2.502692735e-13 2.502692735e-13)
(1899737.005 8.718837222e-25 -8.718837222e-25)
(1947977.151 -2.522414583e-13 -2.522414583e-13)
(1996341.838 2.531059356e-13 -2.531059356e-13)
(2044814.553 -8.808194624e-25 5.077740987e-13)
(2093378.456 -2.545830898e-13 -2.545830898e-13)
(2142016.396 0 -1.770809324e-24)
(2190710.902 2.55713139e-13 2.55713139e-13)
(2239444.187 -8.886203026e-25 8.886203026e-25)
(2288198.155 -2.564825239e-13 -2.564825239e-13)
(2336954.397 2.56727764e-13 -2.56727764e-13)
(2385694.199 8.911669058e-25 5.137556253e-13)
(2434398.537 -2.569310146e-13 -2.569310146e-13)
(2483048.086 0 1.782445764e-24)
(2531623.22 2.567403191e-13 2.567403191e-13)
(2580104.014 -5.695292531e-29 5.695292531e-29)
(2628470.255 -2.561426872e-13 -2.561426872e-13)
(2676701.436 2.556872735e-13 -2.556872735e-13)
(2724776.754 8.851722278e-25 5.102507203e-13)
(2772675.131 -2.544553941e-13 -2.544553941e-13)
(2820375.215 0 -1.760342401e-24)
(2867855.37 2.527851852e-13 2.527851852e-13)
(2915093.694 -8.735440594e-25 -5.035638657e-13)
(2962068.017 -2.506646111e-13 2.506646111e-13)
(3008755.909 2.494317704e-13 2.494317704e-13)
(3055134.688 -5.50852666e-29 5.50852666e-29)
(3101181.417 -2.466138582e-13 -2.466138582e-13)
(3146872.918 0 -1.700263917e-24)
(3192185.767 2.43317106e-13 2.43317106e-13)
(3237096.314 8.378758611e-25 -4.82971639e-13)
(3281580.684 -2.395308687e-13 2.395308687e-13)
(3325614.78 2.374509987e-13 2.374509987e-13)
(3369174.29 -8.161438878e-25 8.161438878e-25)
(3412234.699 -2.329116483e-13 -2.329116483e-13)
(3454771.294 0 1.599066916e-24)
(3496759.172 2.278584157e-13 2.278584157e-13)
(3538173.248 2.499515383e-29 -4.502726619e-13)
(3578988.258 -2.222825382e-13 2.222825382e-13)
(3619178.78 2.192960422e-13 2.192960422e-13)
(3658719.23 7.50058783e-25 -7.50058783e-25)
(3697583.875 -2.129211723e-13 -2.129211723e-13)
(3735746.85 0 1.453867037e-24)
(3773182.159 2.06004637e-13 2.06004637e-13)
(3809863.684 -7.019672564e-25 -4.046824724e-13)
(3845765.202 -1.98540107e-13 1.98540107e-13)
(3880860.393 1.946005845e-13 1.946005845e-13)
(3915122.846 6.609638657e-25 -6.609638657e-25)
(3948526.087 -1.863039694e-13 -1.863039694e-13)
(3981043.57 0 -1.262583558e-24)
(4012648.692 0 1.774471745e-13)
(4043314.823 0 -3.456152934e-13)
(4073015.304 0 1.680269209e-13)
(4101723.46 1.631047433e-13 1.631047433e-13)
(4129412.618 5.483321562e-25 -5.483321562e-25)
(4156056.118 -1.528353496e-13 -1.528353496e-13)
(4181627.333 1.474879629e-13 -1.474879629e-13)
(4206099.676 1.477940247e-24 2.839975741e-13)
(4229446.617 -1.363679172e-13 -1.363679172e-13)
(4251641.708 0 -5.799606319e-29)
(4272658.583 1.246818563e-13 1.246818563e-13)
(4292470.984 -4.115577499e-25 4.115577499e-25)
(4311052.778 -1.124320893e-13 -1.124320893e-13)
(4328377.974 1.060968954e-13 -1.060968954e-13)
(4344420.733 3.456340757e-25 1.992444793e-13)
(4359155.398 -9.300879191e-14 -9.300879191e-14)
(4372556.505 0 -5.986069535e-25)
(4384598.81 7.936865752e-14 7.936865752e-14)
(4395257.276 2.510089444e-25 -2.510089444e-25)
(4404507.185 -6.518370827e-14 -6.518370827e-14)
(4412323.904 5.788961299e-14 -5.788961299e-14)
(4418683.769 -1.750779412e-25 1.009255617e-13)
(4423561.22 -4.290424505e-14 -4.290424505e-14)
(4426936.837 0 -2.443487924e-25)
(4428782.354 2.740048561e-14 2.740048561e-14)
(4429073.474 1.349825471e-25 -1.349825471e-25)
(4427920.34 -1.143534893e-14 -1.143534893e-14)
(4424182.939 2.877673158e-15 -2.877673158e-15)
(4416722.427 -2.313900286e-26 -1.333872699e-14)
(4406186.498 1.699682435e-14 1.699682435e-14)
(4394627.124 0 -1.916071634e-25)
(4383222.05 -3.823094717e-14 -3.823094717e-14)
(4371357.106 3.396470065e-25 9.789658444e-14)
(4358597.332 5.979336318e-14 -5.979336318e-14)
(4344513.88 -7.079934823e-14 -7.079934823e-14)
(4328647.922 -2.845150459e-25 2.845150459e-25)
(4310538.844 9.3462477e-14 9.3462477e-14)
(4289716.506 0 0)
(4265697.332 -1.172779629e-13 -1.172779629e-13)
(4238019.13 4.500283611e-25 2.594319894e-13)
(4206161.073 1.425573026e-13 -1.425573026e-13)
(4169537.636 -1.558852593e-13 -1.558852593e-13)
(4130086.429 -1.174129587e-24 1.174129587e-24)
(4089981.657 1.820104699e-13 1.820104699e-13)
(4049213.334 0 0)
(4008089.675 -2.058208749e-13 -2.058208749e-13)
(3966125.858 7.524522388e-25 4.337591837e-13)
(3922082.673 2.279466145e-13 -2.279466145e-13)
(3875500.514 -2.391953264e-13 -2.391953264e-13)
(3826426.987 2.6976968e-46 -2.6976968e-46)
(3774843.206 2.621395612e-13 2.621395612e-13)
(3720735.441 0 6.080252407e-29)
(3664090.299 -2.856611865e-13 -2.856611865e-13)
(3604893.744 1.032607033e-24 5.952574272e-13)
(3543132.708 3.097288911e-13 -3.097288911e-13)
(3478794.258 -3.219577617e-13 -3.219577617e-13)
(3411865.996 -3.711601163e-29 3.711601163e-29)
(3342335.946 3.467854697e-13 3.467854697e-13)
(3270192.633 -3.593760966e-13 3.593760966e-13)
(3195425.08 -2.581816671e-24 -7.441579901e-13)
(3118022.845 3.848899001e-13 3.848899001e-13)
(3037976.048 0 1.766606779e-28)
(2955275.389 -4.10818341e-13 -4.10818341e-13)
(2869912.179 2.941443351e-24 -2.941443351e-24)
(2781878.356 4.371259514e-13 4.371259514e-13)
(2691166.517 -4.504105547e-13 4.504105547e-13)
(2597769.93 1.60904671e-24 -9.275522771e-13)
(2501682.568 4.772179473e-13 4.772179473e-13)
(2402899.138 0 0)
(2301415.087 0 -5.043108399e-13)
(2197226.636 0 1.797122123e-24)
(2090330.793 0 5.316496809e-13)
(1980725.387 -5.453986367e-13 5.453986367e-13)
(1868409.092 -1.241659417e-28 -1.118387377e-12)
(1753381.431 5.730295445e-13 5.730295445e-13)
(1635642.809 0 -4.072051658e-24)
(1515194.539 -6.008021026e-13 -6.008021026e-13)
(1392038.859 -4.265531137e-24 4.265531137e-24)
(1266178.947 6.286723812e-13 6.286723812e-13)
(1137618.948 -6.426300898e-13 6.426300898e-13)
(1006363.992 9.690957984e-70 -1.313190356e-12)
(872420.2127 6.705617962e-13 6.705617962e-13)
(735794.774 0 -4.749839511e-24)
(596495.8839 0 -6.984758233e-13)
(454532.8184 0 1.424822268e-12)
(309915.9301 0 -7.263237784e-13)
(162656.6764 -7.402075102e-13 -7.402075102e-13)
(12767.63895 1.674340676e-28 -1.674340676e-28)
(-139737.4667 7.678628587e-13 7.678628587e-13)
(-294843.7668 0 5.423762862e-24)
(-452535.2094 -7.953256509e-13 -7.953256509e-13)
(-612794.556 -2.806493323e-24 1.6179368e-12)
(-775603.3581 8.225431331e-13 -8.225431331e-13)
(-940941.9465 -8.360430683e-13 -8.360430683e-13)
(-1108789.41 -5.894133571e-24 5.894133571e-24)
(-1279123.579 8.627910536e-13 8.627910536e-13)
(-1451921.017 0 6.078645766e-24)
(-1627157.003 -8.891566549e-13 -8.891566549e-13)
(-1804805.513 -3.129959755e-24 1.804356694e-12)
(-1984839.21 9.150830491e-13 -9.150830491e-13)
(-2167229.43 -9.278634881e-13 -9.278634881e-13)
(-2351946.17 2.961144021e-46 -2.961144021e-46)
(-2538958.081 9.530221646e-13 9.530221646e-13)
(-2728232.443 0 6.698707824e-24)
(-2919735.164 -9.775949228e-13 -9.775949228e-13)
(-3113430.77 -2.197448303e-28 1.979285471e-12)
(-3309282.383 1.001521335e-12 -1.001521335e-12)
(-3507251.73 -1.013223024e-12 -1.013223024e-12)
(-3707299.124 -3.555281251e-24 3.555281251e-24)
(-3909383.447 1.036064613e-12 1.036064613e-12)
(-4113462.159 0 -1.453196712e-23)
(-4319491.291 -1.058104867e-12 -1.058104867e-12)
(-4527425.42 3.708279878e-24 2.137609405e-12)
(-4737217.684 1.079280362e-12 -1.079280362e-12)
(-4948819.774 -1.089523804e-12 -1.089523804e-12)
(-5162181.922 -3.662160386e-28 3.662160386e-28)
(-5377252.905 1.109281656e-12 1.109281656e-12)
(-5593980.041 -1.118779778e-12 1.118779778e-12)
(-5812309.188 -7.827163267e-24 -2.256026213e-12)
(-6032184.746 1.136973402e-12 1.136973402e-12)
(-6253549.659 0 7.949306023e-24)
(-6476345.411 -1.154041772e-12 -1.154041772e-12)
(-6700512.037 -4.031701432e-24 4.031701432e-24)
(-6925988.117 1.169918296e-12 1.169918296e-12)
(-7152710.79 0 1.177388664e-12)
(-7380615.756 0 -2.369071732e-12)
(-7609637.278 0 1.191351431e-12)
(-7839708.19 0 1.662318698e-23)
(-8070759.913 -1.203953614e-12 -1.203953614e-12)
(-8302722.456 -4.197070209e-24 4.197070209e-24)
(-8535524.425 1.215126784e-12 1.215126784e-12)
(-8769093.031 -1.220155941e-12 1.220155941e-12)
(-9003354.098 -4.249521195e-24 -2.449603798e-12)
(-9238232.074 1.229055914e-12 1.229055914e-12)
(-9473650.042 0 8.55557355e-24)
(-9709529.713 -1.236352847e-12 -1.236352847e-12)
(-9945791.44 -4.300093693e-24 4.300093693e-24)
(-10182354.22 1.241975513e-12 1.241975513e-12)
(-10419135.7 -1.244136384e-12 1.244136384e-12)
(-10656052.13 -4.322138547e-24 -2.491702707e-12)
(-10893018.43 1.247111071e-12 1.247111071e-12)
(-11129948.07 0 8.659087646e-24)
(-11366753.15 -1.248226613e-12 -1.248226613e-12)
(-11603344.29 -5.133496008e-72 2.496125848e-12)
(-11839630.59 1.247404902e-12 -1.247404902e-12)
(-12075519.59 0 -1.246242217e-12)
(-12310917.2 0 0)
(-12545727.53 0 1.242360035e-12)
(-12779852.81 0 -8.601579397e-24)
(-13013193.24 -1.236327058e-12 -1.236327058e-12)
(-13245646.74 4.276003943e-24 2.46494845e-12)
(-13477108.76 1.228046874e-12 -1.228046874e-12)
(-13707471.93 -1.223031497e-12 -1.223031497e-12)
(-13936625.77 -4.223617601e-24 4.223617601e-24)
(-14164456.19 1.211178844e-12 1.211178844e-12)
(-14390845.03 0 1.671263023e-23)
(-14615669.44 -1.196791619e-12 -1.196791619e-12)
(-14838801.18 -1.319615569e-28 2.377208073e-12)
(-15060105.69 1.179728101e-12 -1.179728101e-12)
(-15279441.21 0 -1.170142708e-12)
(-15496657.49 0 1.287664523e-28)
(-15711594.48 0 1.148750647e-12)
(-15924080.68 0 1.577705117e-23)
(-16133931.32 -1.124222457e-12 -1.124222457e-12)
(-16340946.15 -3.853544235e-24 2.221417009e-12)
(-16544906.97 1.096316879e-12 -1.096316879e-12)
(-16745574.73 -1.081010713e-12 -1.081010713e-12)
(-16942686.28 -3.693975617e-24 3.693975617e-24)
(-17135950.57 1.047491672e-12 1.047491672e-12)
(-17325044.5 -1.029188903e-12 1.029188903e-12)
(-17509608.08 -7.006836429e-24 -2.0195831e-12)
(-17689237.74 9.892455496e-13 9.892455496e-13)
(-17863482.72 0 1.342709813e-23)
(-18031838.93 -9.444744084e-13 -9.444744084e-13)
(-18193739.05 -3.192526661e-24 3.192526661e-24)
(-18348546.2 8.943760267e-13 8.943760267e-13)
(-18495545.81 -8.671605224e-13 8.671605224e-13)
(-18633937.71 -2.908996288e-24 -1.676814873e-12)
(-18762826.46 8.080463162e-13 8.080463162e-13)
(-18881212.7 0 5.384638623e-24)
(-18987986.26 -7.422276189e-13 -7.422276189e-13)
(-19081918.43 -7.35484291e-24 7.35484291e-24)
(-19161656.35 6.692086254e-13 6.692086254e-13)
(-19225719.39 -6.298799218e-13 6.298799218e-13)
(-19272498.17 -2.04223807e-24 -1.177270094e-12)
(-19300257.23 5.454700134e-13 5.454700134e-13)
(-19307141.94 0 3.472255814e-24)
(-19291190.45 -4.534877821e-13 -4.534877821e-13)
(-19250351.37 -2.808774866e-24 2.808774866e-24)
(-19182507.66 3.544595149e-13 3.544595149e-13)
(-19085506.43 -3.026238819e-13 3.026238819e-13)
(-18957195.97 -8.656042673e-25 -4.989868871e-13)
(-18795467.92 1.953120482e-13 1.953120482e-13)
(-18598303.45 0 -9.738938912e-25)
(-18363823.45 -8.49836843e-14 -8.49836843e-14)