/*--------------------------------*- C++ -*----------------------------------*\
  =========                 |
  \\      /  F ield         | OpenFOAM: The Open Source CFD Toolbox
   \\    /   O peration     | Website:  https://openfoam.org
    \\  /    A nd           | Version:  7
     \\/     M anipulation  |
\*---------------------------------------------------------------------------*/
FoamFile
{
    version     2.0;
    format      ascii;
    class       volScalarField;
    location    "0.000558243009";
    object      ddt0(rho,C7H14OOH);
}
// * * * * * * * * * * * * * * * * * * * * * * * * * * * * * * * * * * * * * //

dimensions      [1 -3 -1 0 0 0 0];

internalField   nonuniform List<scalar> 
1500
(
3.608277644e-26
1.529958746e-26
2.464438116e-26
2.341869156e-26
1.77375426e-26
1.176990903e-26
7.155916028e-27
4.095713934e-27
2.219049995e-27
1.066594492e-27
2.92368308e-28
-2.998212421e-28
-7.989563312e-28
-1.234876396e-27
-1.611783757e-27
-1.924841621e-27
-2.167605671e-27
-2.334935823e-27
-2.423971793e-27
-2.434342998e-27
-2.368036946e-27
-2.229115094e-27
-2.02336971e-27
-1.757968071e-27
-1.441107115e-27
-1.081688372e-27
-6.890168858e-28
-2.725264199e-28
1.584645925e-28
5.949602106e-28
1.028450904e-27
1.451029837e-27
1.855461115e-27
2.235204434e-27
2.584405698e-27
2.897866968e-27
3.171010441e-27
3.39985011e-27
3.580981757e-27
3.71159737e-27
3.789525322e-27
3.813292761e-27
3.782202093e-27
3.696410525e-27
3.557000683e-27
3.366030619e-27
3.126553559e-27
2.842600714e-27
2.519124218e-27
2.161900756e-27
1.777400188e-27
1.372626084e-27
9.549370218e-28
5.318584571e-28
1.108946678e-28
-3.006505507e-28
-6.958374904e-28
-1.068233367e-27
-1.412031423e-27
-1.72214527e-27
-1.994278966e-27
-2.224974258e-27
-2.411637004e-27
-2.552544909e-27
-2.646838383e-27
-2.694495769e-27
-2.696293906e-27
-2.653754496e-27
-2.569076501e-27
-2.445055143e-27
-2.284988524e-27
-2.092573682e-27
-1.871794892e-27
-1.626807899e-27
-1.36182461e-27
-1.081003128e-27
-7.883483716e-28
-4.876279216e-28
-1.823068769e-28
1.244955208e-28
4.300265484e-28
7.318982877e-28
1.028065698e-27
1.316787877e-27
1.596576854e-27
1.866138973e-27
2.124314025e-27
2.370016938e-27
2.602186178e-27
2.81974238e-27
3.021559416e-27
3.20644921e-27
3.373160551e-27
3.52039115e-27
3.646811532e-27
3.751098766e-27
3.831977559e-27
3.888266047e-27
3.918923522e-27
3.923097378e-27
3.900166551e-27
3.849779244e-27
3.771882719e-27
3.666743701e-27
3.534958284e-27
3.377450864e-27
3.195462334e-27
2.990528446e-27
2.764449654e-27
2.519254586e-27
2.257159285e-27
1.980524803e-27
1.691815442e-27
1.393559804e-27
1.088316301e-27
7.786440936e-28
4.670799114e-28
1.561203248e-28
-1.517914115e-28
-4.542753227e-28
-7.490231317e-28
-1.03380669e-27
-1.306488039e-27
-1.565031972e-27
-1.807521717e-27
-2.032177683e-27
-2.237378568e-27
-2.421683708e-27
-2.583855202e-27
-2.722878078e-27
-2.837976955e-27
-2.928627779e-27
-2.994563656e-27
-3.035774323e-27
-3.052499324e-27
-3.045215601e-27
-3.014620526e-27
-2.961611854e-27
-2.887266249e-27
-2.792817873e-27
-2.679638498e-27
-2.549220138e-27
-2.403160718e-27
-2.243152696e-27
-2.070974224e-27
-1.888481538e-27
-1.697601174e-27
-1.500320331e-27
-1.298673466e-27
-1.09472357e-27
-8.90536852e-28
-6.881501229e-28
-4.895308764e-28
-2.965309163e-28
-1.108350431e-28
6.60927202e-29
2.33062396e-28
3.892072919e-28
5.340255318e-28
6.674102429e-28
7.896651037e-28
9.015026323e-28
1.004023444e-27
1.09867584e-27
1.18719635e-27
1.271533078e-27
1.353755001e-27
1.435951547e-27
1.520127653e-27
1.608100205e-27
1.701402063e-27
1.80119974e-27
1.908230327e-27
2.022762292e-27
2.144583411e-27
2.27301735e-27
2.406968571e-27
2.544993019e-27
2.685390077e-27
2.826309464e-27
2.96586519e-27
3.10224797e-27
3.233827188e-27
3.359234185e-27
3.47742004e-27
3.58768316e-27
3.689664705e-27
3.783312763e-27
3.86881934e-27
3.946536722e-27
4.016881925e-27
4.080238936e-27
4.136868464e-27
4.186833973e-27
4.229950637e-27
4.265761199e-27
4.29353965e-27
4.312320739e-27
4.3209509e-27
4.318154635e-27
4.302610026e-27
4.273027526e-27
4.228227827e-27
4.167216541e-27
4.089255409e-27
3.993931211e-27
3.881223696e-27
3.751572929e-27
3.605943542e-27
3.445879797e-27
3.273540821e-27
3.091701368e-27
2.903700996e-27
2.713324672e-27
2.52460157e-27
2.34151665e-27
2.167641832e-27
2.005708432e-27
1.857159584e-27
1.721737421e-27
1.597172448e-27
1.479048624e-27
1.360914776e-27
1.234698919e-27
1.091456176e-27
9.224440458e-28
7.204727355e-28
4.81427987e-28
2.058135474e-28
-9.988196374e-29
-4.222178885e-28
-7.404647775e-28
-1.027109554e-27
-1.249362409e-27
-1.371742569e-27
-1.359707901e-27
-1.184159336e-27
-8.265082193e-28
-2.838574586e-28
4.262645212e-28
1.262249343e-27
2.156473399e-27
3.015683096e-27
3.724135786e-27
4.149819102e-27
4.153577629e-27
3.601055008e-27
2.375900834e-27
3.963948119e-28
-2.382054886e-27
-3.961021039e-27
-4.389876399e-27
-4.665118931e-27
-4.910571056e-27
-5.153431716e-27
-5.397985967e-27
-5.644896491e-27
-5.894412394e-27
-6.146652277e-27
-6.401666194e-27
-6.659444458e-27
-6.919946648e-27
-7.183117223e-27
-7.448898697e-27
-7.717233997e-27
-7.988067528e-27
-8.261346537e-27
-8.537018687e-27
-8.815031507e-27
-9.095331123e-27
-9.377862765e-27
-9.662571035e-27
-9.949397697e-27
-1.023828391e-26
-1.052916816e-26
-1.082199026e-26
-1.111668604e-26
-1.141319181e-26
-1.171144105e-26
-1.201136835e-26
-1.231290497e-26
-1.261598285e-26
-1.292053183e-26
-1.322648089e-26
-1.353375935e-26
-1.384229412e-26
-1.415201184e-26
-1.44628393e-26
-1.477470162e-26
-1.508752357e-26
-1.540122994e-26
-1.5715745e-26
-1.603099296e-26
-1.634689695e-26
-1.666338134e-26
-1.698037021e-26
-1.729778707e-26
-1.761555671e-26
-1.79336046e-26
-1.825185575e-26
-1.857023725e-26
-1.888867632e-26
-1.920710238e-26
-1.952544506e-26
-1.984363645e-26
-2.016161045e-26
-2.047930326e-26
-2.079665344e-26
-2.111360195e-26
-2.143009291e-26
-2.174607473e-26
-2.206149821e-26
-2.237631976e-26
-2.269049917e-26
-2.300400246e-26
-2.331679984e-26
-2.362886905e-26
-2.394019407e-26
-2.425076555e-26
-2.456058355e-26
-2.486965561e-26
-2.517799938e-26
-2.548564226e-26
-2.579262452e-26
-2.609899656e-26
-2.640482444e-26
-2.671018655e-26
-2.70151785e-26
-2.731991211e-26
-2.762451847e-26
-2.792914819e-26
-2.823397362e-26
-2.85391916e-26
-2.884502208e-26
-2.915171558e-26
-2.94595498e-26
-2.976883654e-26
-3.007992117e-26
-3.039318618e-26
-3.07090557e-26
-3.102799674e-26
-3.135052304e-26
-3.167719944e-26
-3.200864465e-26
-3.234553589e-26
-3.268861375e-26
-3.303868501e-26
-3.33966298e-26
-3.376340517e-26
-3.41400514e-26
-3.45276976e-26
-3.492756688e-26
-3.534098539e-26
-3.576938517e-26
-3.62143154e-26
-3.66774472e-26
-3.716058103e-26
-3.766565732e-26
-3.819476302e-26
-3.875014047e-26
-3.933419718e-26
-3.994951488e-26
-4.059885846e-26
-4.128518763e-26
-4.201166531e-26
-4.278166951e-26
-4.359880198e-26
-4.446690266e-26
-4.539005534e-26
-4.637260305e-26
-4.741915656e-26
-4.853460649e-26
-4.972413335e-26
-5.099321817e-26
-5.234765408e-26
-5.379355344e-26
-5.533736164e-26
-5.698586193e-26
-5.874618763e-26
-6.062582696e-26
-6.263263166e-26
-6.477482302e-26
-6.706099613e-26
-6.950012524e-26
-7.210156378e-26
-7.487504708e-26
-7.783069332e-26
-8.097899841e-26
-8.433083421e-26
-8.789744302e-26
-9.169042667e-26
-9.572173971e-26
-1.000036747e-25
-1.045488494e-25
-1.093701857e-25
-1.144808934e-25
-1.198944429e-25
-1.25624543e-25
-1.3168511e-25
-1.380902349e-25
-1.4485415e-25
-1.519911883e-25
-1.595157449e-25
-1.674422288e-25
-1.757850178e-25
-1.845584049e-25
-1.937765455e-25
-2.034534003e-25
-2.136026728e-25
-2.242377483e-25
-2.353716271e-25
-2.470168555e-25
-2.59185457e-25
-2.718888552e-25
-2.851378035e-25
-2.989423076e-25
-3.133115438e-25
-3.282537857e-25
-3.437763207e-25
-3.598853724e-25
-3.76586021e-25
-3.938821203e-25
-4.117762256e-25
-4.30269512e-25
-4.493616998e-25
-4.690509832e-25
-4.893339601e-25
-5.102055622e-25
-5.316589946e-25
-5.536856774e-25
-5.76275186e-25
-5.994152074e-25
-6.230914937e-25
-6.472878241e-25
-6.719859718e-25
-6.971656851e-25
-7.228046614e-25
-7.488785459e-25
-7.75360922e-25
-8.022233225e-25
-8.294352435e-25
-8.56964164e-25
-8.847755828e-25
-9.128330541e-25
-9.410982435e-25
-9.695309838e-25
-9.98089341e-25
-1.026729696e-24
-1.055406828e-24
-1.084074012e-24
-1.112683117e-24
-1.141184725e-24
-1.169528243e-24
-1.197662046e-24
-1.225533586e-24
-1.253089562e-24
-1.280276054e-24
-1.307038679e-24
-1.333322754e-24
-1.359073464e-24
-1.384236023e-24
-1.408755865e-24
-1.432578798e-24
-1.455651212e-24
-1.477920239e-24
-1.499333946e-24
-1.519841532e-24
-1.539393495e-24
-1.557941833e-24
-1.57544022e-24
-1.591844206e-24
-1.607111392e-24
-1.621201606e-24
-1.634077101e-24
-1.645702723e-24
-1.656046089e-24
-1.665077757e-24
-1.67277141e-24
-1.679104015e-24
-1.684055977e-24
-1.687611329e-24
-1.689757877e-24
-1.690487349e-24
-1.689795576e-24
-1.687682615e-24
-1.68415293e-24
-1.679215529e-24
-1.672884121e-24
-1.665177273e-24
-1.656118552e-24
-1.645736685e-24
-1.634065726e-24
-1.621145211e-24
-1.607020317e-24
-1.591742041e-24
-1.575367389e-24
-1.55795953e-24
-1.539588005e-24
-1.520328957e-24
-1.500265279e-24
-1.479486896e-24
-1.458090987e-24
-1.436182214e-24
-1.413873002e-24
-1.391283833e-24
-1.368543537e-24
-1.345789584e-24
-1.32316852e-24
-1.300836879e-24
-1.278970092e-24
-1.257864471e-24
-1.238994772e-24
-1.233875013e-24
-1.297265424e-24
-1.379939627e-24
-1.505349721e-24
-1.733833589e-24
-1.942840117e-24
-2.119682153e-24
-2.260950179e-24
-2.36272886e-24
-2.421917465e-24
-2.435487832e-24
-2.400217821e-24
-2.313128039e-24
-2.171898464e-24
-1.973626091e-24
-1.741764372e-24
-1.671598137e-24
-1.601472139e-24
-1.518526804e-24
-1.434768511e-24
-1.416060871e-24
-1.463389595e-24
-1.534159654e-24
-1.616870024e-24
-1.710168714e-24
-1.814455108e-24
-1.930400834e-24
-2.058740658e-24
-2.200247361e-24
-2.355730078e-24
-2.526035484e-24
-2.71204959e-24
-2.914699264e-24
-3.134954235e-24
-3.373829089e-24
-3.632385298e-24
-3.911733564e-24
-4.213036304e-24
-4.53751018e-24
-4.88642905e-24
-5.261126882e-24
-5.663001223e-24
-6.093516566e-24
-6.554208382e-24
-7.046687184e-24
-7.57264309e-24
-8.133850792e-24
-8.732174788e-24
-9.369575312e-24
-1.004811452e-23
-1.076996341e-23
-1.153740914e-23
-1.235286329e-23
-1.321887041e-23
-1.413811765e-23
-1.511344505e-23
-1.614785664e-23
-1.72445327e-23
-1.840684261e-23
-1.963835928e-23
-2.094287426e-23
-2.232441449e-23
-2.378725984e-23
-2.533596276e-23
-2.697536868e-23
-2.871063859e-23
-3.054727287e-23
-3.249113735e-23
-3.454849101e-23
-3.672601594e-23
-3.903084941e-23
-4.147061844e-23
-4.405347715e-23
-4.678814665e-23
-4.968395853e-23
-5.275090179e-23
-5.599967368e-23
-5.944173613e-23
-6.308937641e-23
-6.695577647e-23
-7.105508939e-23
-7.540252742e-23
-8.001446394e-23
-8.490855356e-23
-9.010387717e-23
-9.562112024e-23
-1.014827967e-22
-1.077135363e-22
-1.14340459e-22
-1.213936728e-22
-1.289069438e-22
-1.369186081e-22
-1.454728281e-22
-1.546213335e-22
-1.644258513e-22
-1.749615128e-22
-1.863216517e-22
-1.986245781e-22
-2.120231672e-22
-2.267184625e-22
-2.429789934e-22
-2.611682563e-22
-2.817838399e-22
-3.055131901e-22
-3.333131518e-22
-3.665235225e-22
-4.070292855e-22
-4.57492569e-22
-5.216845731e-22
-6.049609479e-22
-7.149432382e-22
-8.624966977e-22
-1.063134876e-21
-1.339039679e-21
-1.72197042e-21
-2.257459267e-21
-3.010871765e-21
-4.076177467e-21
-5.588668036e-21
-7.743440754e-21
-1.082232753e-20
-1.523323604e-20
-2.156779815e-20
-3.068612809e-20
-4.384189829e-20
-6.286765977e-20
-9.045064657e-20
-1.305452416e-19
-1.889931003e-19
-2.744608765e-19
-3.998671357e-19
-5.845684604e-19
-8.577333651e-19
-1.263590805e-18
-1.86966465e-18
-2.779811419e-18
-4.155065834e-18
-6.247319665e-18
-9.454342848e-18
-1.441074017e-17
-2.214021117e-17
-3.431383681e-17
-5.369441551e-17
-8.491225925e-17
-1.358409879e-16
-2.200778577e-16
-3.614903469e-16
-6.027085125e-16
-1.021275653e-15
-1.760976743e-15
-3.093843569e-15
-5.545462742e-15
-1.01537148e-14
-1.901490536e-14
-3.646264865e-14
-7.167110803e-14
-1.445362679e-13
-2.992690042e-13
-6.365258574e-13
-1.391040481e-12
-3.123178327e-12
-7.201071451e-12
-1.703654165e-11
-4.130561457e-11
-1.02459272e-10
-2.594722212e-10
-6.691608239e-10
-1.752308805e-09
-4.64449989e-09
-1.241744447e-08
-3.337118168e-08
-8.984045001e-08
-2.415259908e-07
-6.466774951e-07
-1.721042242e-06
-4.54798182e-06
-1.193326035e-05
-3.111839273e-05
-8.076995749e-05
-0.000208950472
-0.0005388497396
-0.001382415668
-0.003511216845
-0.008762439569
-0.02127520382
-0.04955063965
-0.1098525234
-0.2241806805
-0.4304104023
-0.7624866985
-1.277965185
-1.433622144
-0.8813106984
0.9936559262
4.062395141
6.413746257
5.557791349
2.153828668
-0.8108445529
-1.990053998
-1.898852506
-1.459700967
-0.9229163859
-0.5942409847
-0.3706509069
-0.2284243322
-0.1335543084
-0.08063117571
-0.04887778049
-0.02993727914
-0.01771484274
-0.01085471099
-0.006670353883
-0.004109073086
-0.0025364006
-0.00156627307
-0.0009692441557
-0.0005908577019
-0.000364925377
-0.0002236251821
-0.0001379627802
-8.518778117e-05
-5.265883636e-05
-3.260985933e-05
-2.027506401e-05
-1.256147456e-05
-7.645634843e-06
-4.643458946e-06
-2.812565396e-06
-1.695363496e-06
-1.018523926e-06
-6.132884487e-07
-3.711301395e-07
-2.259268319e-07
-1.382525764e-07
-8.248568106e-08
-4.875113057e-08
-2.908792897e-08
-1.715596321e-08
-9.987456503e-09
-5.728820397e-09
-3.229105848e-09
-1.781006132e-09
-9.528601699e-10
-4.896318722e-10
-2.358739813e-10
-1.011596479e-10
-3.283966826e-11
-6.49829531e-13
1.253815249e-11
1.622824455e-11
1.555649751e-11
1.319689694e-11
1.046445352e-11
7.945318711e-12
5.850229486e-12
4.208667589e-12
2.972168539e-12
2.066864879e-12
1.418333447e-12
9.618306383e-13
6.451954357e-13
4.283670439e-13
2.815801219e-13
1.832573072e-13
1.1805691e-13
7.524299144e-14
4.740381908e-14
2.948329094e-14
1.806939673e-14
1.08827351e-14
6.4151912e-15
3.678378269e-15
2.030687352e-15
1.05970592e-15
5.030958445e-16
1.95862768e-16
3.553976458e-17
-4.059009519e-17
-7.025685396e-17
-7.568025544e-17
-6.862867889e-17
-5.389103826e-17
-4.191637901e-17
-3.226845921e-17
-2.458629676e-17
-1.854751316e-17
-1.38607893e-17
-1.026733404e-17
-7.543142191e-18
-5.499405092e-18
-3.980819047e-18
-2.802852341e-18
-1.944205445e-18
-1.339842671e-18
-9.177146463e-19
-6.249374561e-19
-4.231946863e-19
-2.850294755e-19
-1.909547497e-19
-1.27256842e-19
-8.43582763e-20
-5.561483786e-20
-3.644422586e-20
-2.373272968e-20
-1.534230455e-20
-9.849503723e-21
-6.280476511e-21
-3.977670421e-21
-2.501670645e-21
-1.561750776e-21
-9.672249147e-22
-5.938043524e-22
-3.61224467e-22
-2.178712071e-22
-1.301368754e-22
-7.621797477e-23
-4.457008558e-23
-2.596546237e-23
-1.499496456e-23
-8.560228941e-24
-4.764503982e-24
-2.580898273e-24
-1.316603407e-24
-6.079288241e-25
-2.366210434e-25
-4.378009021e-26
3.598076755e-26
5.938611996e-26
8.917222911e-26
7.693787734e-26
6.004971891e-26
4.590106963e-26
3.760315335e-26
3.04855671e-26
2.527487956e-26
1.870175986e-26
1.387800988e-26
1.316075596e-26
9.272852466e-27
6.15763996e-27
4.351105603e-27
2.688829348e-27
1.353502652e-27
1.165427296e-27
4.539921299e-28
4.131513512e-28
2.626464461e-28
1.819523089e-28
1.038926621e-28
1.033959536e-28
1.347911187e-28
2.427152475e-28
2.180135791e-28
2.671764435e-28
2.248239646e-28
2.447314988e-28
1.778457632e-28
1.655333123e-28
1.02727417e-28
6.551957943e-29
4.492599915e-29
8.284977682e-29
8.570710627e-29
4.372013417e-29
9.195192504e-30
7.070709824e-30
7.274721334e-30
5.523040156e-30
6.913117922e-31
-3.262498075e-30
-1.788636962e-30
4.90314271e-30
-1.659025759e-30
-6.758113336e-30
-4.953870393e-30
-4.469973387e-30
-4.231024134e-30
-2.560064714e-30
8.393534335e-31
1.518901352e-30
1.898135202e-30
2.386007631e-30
1.144719914e-30
6.849e-31
3.536006992e-31
1.71752238e-31
1.537454186e-31
-3.630070541e-31
-3.863527436e-31
-4.205385949e-31
-4.324014388e-31
-4.1779635e-31
-3.14181729e-31
-3.31915873e-31
-2.541130887e-31
-2.142124471e-31
-1.439521592e-31
-1.012656614e-31
-1.780711042e-32
-6.359386022e-32
-2.520308555e-32
1.056408615e-32
5.779206021e-32
5.025008701e-32
2.047390343e-32
-6.228344086e-33
-1.040009498e-32
-8.829569121e-33
-1.365596782e-32
-7.582334942e-33
-4.504265179e-33
-4.48301638e-33
-2.377963675e-33
5.679995371e-34
-2.102703991e-34
2.960993044e-33
3.372905941e-33
3.862762041e-33
6.491738423e-33
7.545439148e-33
7.59002818e-33
6.171454194e-33
5.361967494e-33
5.3098772e-33
3.351032707e-33
2.26477257e-33
8.218062068e-34
8.210172629e-34
1.069768229e-33
6.29502237e-34
3.713243957e-34
1.439920138e-34
6.534876421e-35
3.357322978e-35
1.128955842e-35
5.186720511e-35
1.015289469e-34
1.966196249e-34
1.370907077e-34
1.075937396e-34
1.052371004e-34
1.129412443e-34
1.238999722e-34
1.930780245e-34
2.336337422e-34
2.203256269e-34
1.54015937e-34
8.663460949e-35
4.664166985e-35
3.283376236e-35
1.437531872e-35
3.125185172e-36
-9.436666393e-36
-9.502004413e-36
4.168157093e-36
2.672561235e-36
3.351457542e-36
4.376652406e-36
1.462878901e-36
-7.515237019e-38
-9.248746024e-37
-1.107501158e-36
-1.70419927e-36
-1.541940543e-36
-1.095632144e-36
-6.875808017e-37
2.695992151e-37
2.862468812e-37
5.978413094e-37
3.00370851e-37
-7.217590672e-38
-3.532862718e-37
-2.955633077e-37
3.775364887e-37
3.585493048e-37
-2.876904852e-38
-4.081225195e-37
-6.476970108e-38
-1.958263539e-38
7.21415099e-38
2.236447264e-37
1.050652947e-37
8.632591617e-38
7.698740909e-38
2.513436692e-38
2.384921452e-39
-7.186800331e-39
-6.650028493e-39
-9.777629238e-39
-4.164954216e-39
1.072515072e-38
3.00212787e-39
7.465917657e-39
1.884595932e-38
1.418861557e-38
1.568982176e-40
9.530182139e-39
3.675038919e-39
1.949292704e-39
5.327653524e-39
1.625083014e-38
9.69584038e-39
6.738481447e-39
2.480254914e-39
3.749602239e-39
3.120888716e-39
1.878664208e-40
-2.254962434e-39
-6.394987434e-40
-1.984168805e-39
-2.728494451e-39
-2.617510382e-39
-2.013635302e-39
-2.453018095e-39
-2.507128192e-39
-3.35072259e-39
-4.097716672e-39
-3.912576121e-39
-3.539861365e-39
-2.821367074e-39
-2.028845881e-39
-7.042471622e-40
-3.404969824e-40
-1.064098731e-40
6.904065521e-41
2.394067275e-40
2.063212935e-40
1.888148676e-40
2.324528592e-40
2.031546823e-40
2.432066406e-40
2.173564226e-40
1.355148573e-40
8.471933585e-41
3.766425051e-41
-3.215947827e-42
-4.795245322e-41
-1.049187824e-41
1.900387384e-41
5.774504062e-41
8.790032009e-42
-3.087503974e-41
-6.358744603e-41
-1.364747188e-41
5.870827205e-42
1.064809485e-41
1.803513728e-41
1.066844791e-41
5.82748171e-42
2.483852686e-42
-2.948024752e-42
-7.514983355e-42
-3.310331201e-42
-1.082655994e-44
-9.245616147e-43
-2.982932124e-42
-6.291774847e-42
-5.925371998e-42
-3.713168249e-42
-1.988362144e-42
-7.510001106e-44
1.862960419e-42
2.810933748e-42
1.918960663e-42
1.179649052e-42
7.20375121e-43
4.966899358e-43
9.025264758e-44
2.265553636e-43
4.227926719e-43
7.086429494e-43
4.610802424e-43
3.576795972e-43
3.231300093e-43
3.755988497e-43
5.458204908e-43
3.127978203e-43
1.638404477e-43
1.735176316e-43
6.425693233e-44
-1.263188715e-44
-7.424499406e-44
-1.41905601e-43
-1.069310635e-43
-8.396281535e-44
-4.944109914e-44
1.328144453e-44
-1.960058006e-44
-7.412308283e-45
-2.619145531e-44
7.94558433e-46
3.69572718e-46
-1.01252701e-44
6.137203498e-46
9.335102729e-45
2.253447007e-44
2.077421374e-44
3.121437996e-46
-6.318971273e-45
-1.497457996e-44
-8.750050323e-45
-5.353540103e-45
-3.275337489e-45
-3.804193488e-45
-4.815302863e-45
-3.780181746e-45
-3.003296441e-45
-2.320584213e-45
-2.20914672e-45
-2.323322112e-45
-2.658159188e-45
-2.385247333e-45
-1.045279616e-45
1.068012224e-46
1.13632596e-45
9.828329089e-46
9.383117394e-46
5.121651526e-46
1.99762932e-46
6.175858932e-46
1.307428038e-45
8.934161242e-46
9.66503015e-46
9.632226271e-46
5.245822867e-46
1.507802952e-46
6.02891723e-47
1.939516274e-46
1.577891311e-46
7.621030202e-47
1.622570981e-46
1.552155098e-46
1.073162123e-46
8.094697735e-47
8.10528359e-47
1.006224421e-46
1.230820417e-46
1.066946119e-46
7.089257068e-47
4.117046844e-47
1.910608649e-47
3.542847709e-48
-1.265965943e-47
-1.296893887e-47
-3.75538912e-48
5.718294668e-48
1.416819806e-47
1.512268261e-47
1.111644814e-47
8.861622112e-48
8.119544927e-48
3.168931343e-48
-2.477509821e-48
1.020160589e-49
-7.13527967e-49
-8.752251015e-49
-1.355692617e-48
-1.501396568e-48
-1.113539773e-48
-4.669677492e-49
4.717747848e-49
2.559525202e-50
-1.686813264e-49
-4.240037762e-49
-8.029894399e-49
-7.786792202e-49
-3.971542509e-49
-1.653340473e-49
1.797894258e-50
2.114134929e-49
7.924550671e-50
-7.971134335e-50
6.860610028e-50
1.214805315e-49
3.231985248e-49
3.042389327e-49
6.64651004e-50
-3.006795232e-50
4.653605989e-51
3.297580758e-51
2.924979723e-51
-3.703056262e-50
-7.287366173e-50
-8.12497192e-50
-9.248955822e-50
-9.150503425e-50
-6.004429992e-50
-4.383354346e-50
-2.137183569e-50
-3.6265043e-51
-9.429714637e-51
-1.971909279e-51
2.151992041e-50
4.088894082e-50
3.583030704e-50
3.898072051e-50
2.667550627e-50
1.638961051e-50
1.018176015e-50
6.480052525e-51
4.438820817e-51
2.559414645e-51
1.302700986e-51
1.309249963e-51
-1.593815096e-51
-1.684964501e-51
1.241266897e-51
3.956888924e-51
2.872889319e-51
2.407145969e-51
1.275295205e-51
9.992475537e-52
9.265165444e-52
-1.333571047e-52
-1.284307962e-51
-1.236919683e-51
-6.945916434e-52
-3.620235231e-52
8.109147278e-53
9.95341323e-53
9.008579464e-53
1.595445422e-52
1.192576537e-52
5.493856115e-53
1.217008246e-53
-2.458383242e-53
-7.978051701e-53
-1.28272625e-52
-9.744778194e-53
-7.022060058e-53
-7.372416576e-53
-1.585274469e-52
-1.687664973e-52
-2.078476665e-52
-1.654406078e-52
-1.655743529e-52
-1.35086126e-52
-4.635119292e-54
1.731107299e-54
-3.017711469e-54
-2.112929735e-56
-4.688922471e-57
2.036268419e-56
1.765603125e-57
1.95079347e-58
3.175816879e-58
1.330646514e-58
-8.310921245e-59
4.587066981e-59
3.510292567e-59
7.789102726e-60
2.668855563e-60
-5.478032957e-60
2.234886534e-60
5.228452609e-60
6.394717756e-61
-4.64259589e-61
3.860482713e-61
2.717654659e-62
-2.076589316e-62
-2.019239325e-62
-1.647836829e-62
-3.348690122e-63
-1.478666615e-63
1.075707934e-63
1.410309622e-63
4.441710585e-64
-4.509203235e-64
2.329183996e-64
-2.063401471e-65
-2.322364822e-66
-9.272117261e-66
1.004660681e-64
1.410492542e-64
3.322602557e-66
2.209235779e-66
-1.09130406e-65
1.777218551e-66
4.793520162e-66
-6.390377093e-67
-2.974951457e-65
-4.59969732e-67
6.625405573e-66
1.87829215e-67
-6.498239209e-66
2.466232739e-66
-9.491196355e-67
1.899675153e-66
6.274658232e-67
-6.506254211e-69
-2.88412347e-67
2.558101377e-67
-5.400298117e-68
-4.705819711e-68
-8.730713453e-69
2.232420804e-68
1.942966596e-68
-9.347021206e-69
3.337054891e-69
-4.499466403e-69
-4.20080508e-71
3.241718373e-70
2.067702907e-70
2.875000286e-72
-3.291022634e-71
-1.40482292e-70
-6.373754523e-72
-9.917628944e-71
-6.537093959e-72
-1.790140264e-71
2.44219483e-71
-1.550804811e-71
3.236782965e-73
6.600773828e-72
5.500817327e-72
-9.223168939e-73
-1.419129794e-72
-7.65634857e-73
1.201014876e-72
8.604021617e-73
-4.143043771e-73
-1.609007182e-73
3.477836023e-75
8.169834759e-74
1.162315707e-74
1.670467513e-74
-3.227095946e-75
-3.985453954e-75
-4.679604021e-76
-3.478361087e-76
6.307444915e-77
1.752295056e-76
9.163152764e-78
5.669610888e-77
-1.506305559e-77
-6.808134125e-79
-2.48138076e-78
4.204954035e-80
6.944750496e-78
4.010745871e-78
-2.710783253e-78
-3.949722454e-79
-6.67244335e-81
-9.322450533e-80
-5.869648004e-79
1.92024796e-79
7.733858496e-79
1.05047171e-80
-1.466913594e-79
-6.499334107e-80
5.279215831e-79
-5.334050743e-80
1.173532244e-81
2.886437661e-79
-4.259666849e-80
1.020764564e-79
9.046370108e-80
-4.725009782e-80
2.007803066e-80
3.231472387e-80
2.243798331e-80
-3.711076716e-79
-2.263785294e-79
-5.350178809e-80
1.23232437e-79
2.431768273e-80
-2.216808615e-79
1.274320257e-80
-5.515527958e-79
-5.203143655e-79
-2.291174088e-79
1.788447659e-79
-5.49051516e-79
1.481118773e-80
-6.548573679e-79
-1.238961177e-79
-5.570728429e-79
-3.294084842e-79
-2.52919139e-81
1.226718427e-80
-8.88097856e-79
-5.187523121e-79
-1.072809522e-79
-4.200404377e-79
-5.776892014e-79
1.354795898e-80
-1.20961525e-78
-2.292814224e-79
-3.976456026e-79
-2.303722304e-80
4.56945339e-80
-5.420540031e-79
3.179124352e-79
-1.414978834e-79
1.019656913e-81
9.695571365e-79
-2.424302743e-80
-8.060678442e-80
-8.953850449e-80
6.069679683e-80
1.049269951e-81
9.353912944e-79
1.015575417e-80
1.125609673e-78
1.076939394e-80
-5.263130089e-79
-3.241507326e-79
2.09594272e-79
7.451258501e-79
3.151038348e-80
-2.531394613e-79
-1.862609994e-79
-7.470556771e-80
2.590657788e-79
-8.397552844e-79
1.421161426e-81
-1.705765977e-79
-2.362573491e-81
2.544816364e-82
-7.976602299e-79
-7.098296749e-81
1.528019029e-82
-2.779540828e-79
5.328396517e-82
6.673054088e-79
-7.521709662e-79
-5.015039224e-79
-8.41121433e-80
-1.270980769e-79
-8.171573299e-82
-2.098858945e-82
-4.606545442e-80
1.036436488e-81
1.440825487e-80
9.180232287e-80
5.147314231e-81
1.825758675e-80
1.152707648e-79
-7.805779648e-80
-8.041267428e-79
-2.088452262e-79
-4.922239755e-80
6.604691951e-80
4.99249759e-81
-9.193896727e-80
9.753939707e-80
4.176728817e-80
-4.475199535e-80
-8.42781102e-80
-2.316959831e-79
5.466917101e-82
1.061749108e-81
1.310476525e-83
2.831385224e-80
1.503736981e-82
-1.04431289e-80
-8.61243569e-82
-4.577110351e-81
1.1522788e-80
-2.139864477e-81
-4.370680769e-83
-9.86224619e-81
5.878675994e-81
7.778239078e-81
-3.319555551e-82
-4.613436271e-80
3.086512338e-79
-1.446183996e-79
-2.164273269e-81
2.268701271e-80
-1.903248643e-79
-8.283874081e-80
-4.058139111e-79
1.455818306e-79
1.276092251e-79
1.179908786e-81
-3.961373364e-81
1.626464737e-83
6.505245795e-80
9.404285465e-79
-4.263516864e-79
5.038324454e-79
6.323771031e-80
-4.433667595e-81
5.208408123e-81
-1.268580497e-79
-4.731573894e-82
)
;

boundaryField
{
    inlet
    {
        type            calculated;
        value           uniform 0;
    }
    outlet
    {
        type            calculated;
        value           uniform -4.73157391e-82;
    }
    wall
    {
        type            empty;
    }
}


// ************************************************************************* //
