/*--------------------------------*- C++ -*----------------------------------*\
  =========                 |
  \\      /  F ield         | OpenFOAM: The Open Source CFD Toolbox
   \\    /   O peration     | Website:  https://openfoam.org
    \\  /    A nd           | Version:  7
     \\/     M anipulation  |
\*---------------------------------------------------------------------------*/
FoamFile
{
    version     2.0;
    format      ascii;
    class       volScalarField;
    location    "0.000558243009";
    object      ddt0(rho,HO2);
}
// * * * * * * * * * * * * * * * * * * * * * * * * * * * * * * * * * * * * * //

dimensions      [1 -3 -1 0 0 0 0];

internalField   nonuniform List<scalar> 
1500
(
-4.075527321e-08
-1.277767101e-07
-1.986869894e-07
-2.086393775e-07
-1.662576999e-07
-1.070592613e-07
-5.795332942e-08
-2.712211216e-08
-1.125533566e-08
-4.328793851e-09
-1.750739366e-09
-9.815386558e-10
-8.643796836e-10
-9.465816472e-10
-1.068679178e-09
-1.179603484e-09
-1.263882797e-09
-1.317055607e-09
-1.338180378e-09
-1.32764595e-09
-1.286568979e-09
-1.216608571e-09
-1.119878933e-09
-9.988833354e-10
-8.56452057e-10
-6.956833901e-10
-5.198899401e-10
-3.325523467e-10
-1.372807196e-10
6.221794286e-11
2.621696566e-10
4.587652209e-10
6.481984107e-10
8.267146193e-10
9.906719955e-10
1.136615578e-09
1.261362761e-09
1.362095245e-09
1.436452731e-09
1.482621191e-09
1.499408634e-09
1.486301739e-09
1.443498111e-09
1.371910626e-09
1.273142704e-09
1.14943555e-09
1.003590655e-09
8.388725142e-10
6.588978093e-10
4.675176592e-10
2.686995769e-10
6.641489505e-11
-1.354637668e-10
-3.332516891e-10
-5.235261676e-10
-7.031851872e-10
-8.694912398e-10
-1.020101661e-09
-1.153087202e-09
-1.266940483e-09
-1.360575785e-09
-1.433321112e-09
-1.484903212e-09
-1.515425664e-09
-1.525340141e-09
-1.515410843e-09
-1.486672495e-09
-1.44038265e-09
-1.377969695e-09
-1.300978478e-09
-1.211016037e-09
-1.109700143e-09
-9.986134366e-10
-8.792657238e-10
-7.530664781e-10
-6.213087337e-10
-4.851648245e-10
-3.45693285e-10
-2.038554407e-10
-6.053948142e-11
8.341076147e-11
2.271653058e-10
3.698787134e-10
5.106647172e-10
6.485768772e-10
7.825968877e-10
9.116313927e-10
1.03451749e-09
1.150036586e-09
1.256935547e-09
1.353953847e-09
1.43985506e-09
1.513460865e-09
1.57368571e-09
1.619570344e-09
1.650312444e-09
1.665292911e-09
1.664096549e-09
1.646526227e-09
1.61260998e-09
1.562600868e-09
1.496969918e-09
1.416392751e-09
1.321730961e-09
1.214009524e-09
1.094391689e-09
9.641529205e-10
8.246552708e-10
6.773234037e-10
5.236232243e-10
3.650435688e-10
2.030810616e-10
3.92279196e-11
-1.250380584e-10
-2.882619828e-10
-4.490199124e-10
-6.059272121e-10
-7.576480051e-10
-9.029060941e-10
-1.040497464e-09
-1.169304106e-09
-1.288308551e-09
-1.396608364e-09
-1.493429631e-09
-1.578138482e-09
-1.650249794e-09
-1.709432519e-09
-1.755511246e-09
-1.788464021e-09
-1.808416787e-09
-1.815634953e-09
-1.810512969e-09
-1.793562761e-09
-1.76540184e-09
-1.726741851e-09
-1.678378065e-09
-1.621179908e-09
-1.556082576e-09
-1.484079103e-09
-1.406212367e-09
-1.323566053e-09
-1.237253705e-09
-1.148405026e-09
-1.05814869e-09
-9.675914592e-10
-8.77793557e-10
-7.897409274e-10
-7.043153169e-10
-6.222637976e-10
-5.441694043e-10
-4.70425096e-10
-4.012131557e-10
-3.364921762e-10
-2.759932775e-10
-2.192270931e-10
-1.655019671e-10
-1.13953657e-10
-6.358535719e-11
-1.331678078e-11
3.796037643e-11
9.13233429e-11
1.477590991e-10
2.081087323e-10
2.730189218e-10
3.429037751e-10
4.179199208e-10
4.979565306e-10
5.826413437e-10
6.713623949e-10
7.633040485e-10
8.574948568e-10
9.528636891e-10
1.04829989e-09
1.142712917e-09
1.235086745e-09
1.324524694e-09
1.410281383e-09
1.491779301e-09
1.568609172e-09
1.640514591e-09
1.707363115e-09
1.769107096e-09
1.825738641e-09
1.877243601e-09
1.92355948e-09
1.964541695e-09
1.999941739e-09
2.029399225e-09
2.052448778e-09
2.068540785e-09
2.077074078e-09
2.077437446e-09
2.06905632e-09
2.051440919e-09
2.024232343e-09
1.987243493e-09
1.940492455e-09
1.884226579e-09
1.818935849e-09
1.745354208e-09
1.664448063e-09
1.577390416e-09
1.485519651e-09
1.39028242e-09
1.293160421e-09
1.195583486e-09
1.098832578e-09
1.003940245e-09
9.115981658e-10
8.220846747e-10
7.352265162e-10
6.504089454e-10
5.666457802e-10
4.827162307e-10
3.973671559e-10
3.095693416e-10
2.188053378e-10
1.253549301e-10
3.05345179e-11
-6.315842175e-11
-1.520452137e-10
-2.314523222e-10
-2.961116878e-10
-3.407796683e-10
-3.610501046e-10
-3.543038135e-10
-3.207027442e-10
-2.641067473e-10
-1.927694013e-10
-1.196606681e-10
-6.227304655e-11
-4.179630731e-11
-8.159587418e-11
-2.049977466e-10
-4.324669785e-10
-7.783587679e-10
-1.247513159e-09
-1.832048037e-09
-2.508771284e-09
-3.237679183e-09
-3.962036699e-09
-4.610563167e-09
-5.102271186e-09
-5.354546793e-09
-5.294802804e-09
-4.875620328e-09
-4.090154434e-09
-2.982904815e-09
-1.631007639e-09
-7.816872844e-11
8.472801297e-10
9.978986348e-10
1.08157442e-09
1.146873008e-09
1.206383754e-09
1.262957094e-09
1.316753718e-09
1.367207926e-09
1.413482745e-09
1.454784865e-09
1.490448848e-09
1.519929595e-09
1.542781002e-09
1.558588909e-09
1.566954499e-09
1.567473842e-09
1.559711639e-09
1.543208541e-09
1.517477014e-09
1.482006916e-09
1.436259006e-09
1.37966184e-09
1.311629364e-09
1.231542466e-09
1.138765573e-09
1.032613525e-09
9.123939735e-10
7.773702618e-10
6.26787704e-10
4.598401514e-10
2.757056301e-10
7.351247171e-11
-1.476391606e-10
-3.886878237e-10
-6.506219898e-10
-9.344585555e-10
-1.24126104e-09
-1.572144066e-09
-1.928259687e-09
-2.31080886e-09
-2.721045464e-09
-3.160272813e-09
-3.629848382e-09
-4.131176606e-09
-4.665728128e-09
-5.2350286e-09
-5.840656766e-09
-6.484261091e-09
-7.167554494e-09
-7.892306684e-09
-8.660364579e-09
-9.473637677e-09
-1.033411483e-08
-1.124384829e-08
-1.220497269e-08
-1.321969952e-08
-1.429032107e-08
-1.541921072e-08
-1.660882298e-08
-1.786169925e-08
-1.9180476e-08
-2.056786857e-08
-2.202669609e-08
-2.355986195e-08
-2.517037528e-08
-2.686133204e-08
-2.863594025e-08
-3.049750635e-08
-3.244943578e-08
-3.449525167e-08
-3.663857483e-08
-3.888314091e-08
-4.123279218e-08
-4.369149711e-08
-4.626332192e-08
-4.89524682e-08
-5.176323828e-08
-5.470006629e-08
-5.776750022e-08
-6.097021704e-08
-6.431301236e-08
-6.780080696e-08
-7.143865489e-08
-7.523171748e-08
-7.91853085e-08
-8.330484802e-08
-8.759590105e-08
-9.206415154e-08
-9.671540967e-08
-1.015556249e-07
-1.065908701e-07
-1.118273454e-07
-1.17271384e-07
-1.229294431e-07
-1.288081078e-07
-1.349140944e-07
-1.412542345e-07
-1.478354928e-07
-1.546649516e-07
-1.61749817e-07
-1.690974146e-07
-1.767151797e-07
-1.846106776e-07
-1.927915675e-07
-2.012656353e-07
-2.100407682e-07
-2.191249488e-07
-2.285262732e-07
-2.382529312e-07
-2.483132041e-07
-2.587154667e-07
-2.694681802e-07
-2.805798815e-07
-2.920591943e-07
-3.039148087e-07
-3.161554888e-07
-3.28790051e-07
-3.418273922e-07
-3.552764374e-07
-3.691461747e-07
-3.83445628e-07
-3.981838618e-07
-4.133699696e-07
-4.29013067e-07
-4.451222976e-07
-4.617068e-07
-4.787757399e-07
-4.963382648e-07
-5.144035311e-07
-5.329806709e-07
-5.520788e-07
-5.717070121e-07
-5.918743641e-07
-6.125898851e-07
-6.338625447e-07
-6.557012626e-07
-6.781149156e-07
-7.011123015e-07
-7.247021548e-07
-7.488931442e-07
-7.736938379e-07
-7.991127314e-07
-8.25158221e-07
-8.518386203e-07
-8.79162122e-07
-9.071368326e-07
-9.357707281e-07
-9.65071688e-07
-9.950474739e-07
-1.025705718e-06
-1.05705394e-06
-1.089099525e-06
-1.121849748e-06
-1.155311743e-06
-1.189492529e-06
-1.22439899e-06
-1.260037884e-06
-1.296415857e-06
-1.333539419e-06
-1.371414968e-06
-1.41004879e-06
-1.449447051e-06
-1.48961583e-06
-1.530561081e-06
-1.572288686e-06
-1.614804451e-06
-1.658114078e-06
-1.702223235e-06
-1.747137518e-06
-1.792862489e-06
-1.839403692e-06
-1.886766632e-06
-1.934956844e-06
-1.983979873e-06
-2.033841294e-06
-2.084546742e-06
-2.136101944e-06
-2.188512704e-06
-2.241784961e-06
-2.295924812e-06
-2.350938503e-06
-2.406832501e-06
-2.463613502e-06
-2.521288461e-06
-2.579864616e-06
-2.639349559e-06
-2.699751217e-06
-2.761077944e-06
-2.823338511e-06
-2.886542183e-06
-2.950698755e-06
-3.015818569e-06
-3.081912601e-06
-3.148992467e-06
-3.217070512e-06
-3.286159847e-06
-3.35627438e-06
-3.427428907e-06
-3.499639155e-06
-3.572921836e-06
-3.647294708e-06
-3.722776662e-06
-3.799387741e-06
-3.877149295e-06
-3.956083923e-06
-4.036215664e-06
-4.117570027e-06
-4.200174043e-06
-4.284056382e-06
-4.369247439e-06
-4.455779353e-06
-4.54368622e-06
-4.633004021e-06
-4.723770869e-06
-4.816026988e-06
-4.909814859e-06
-5.005179365e-06
-5.102167798e-06
-5.20083003e-06
-5.301218592e-06
-5.403388822e-06
-5.507398955e-06
-5.61331022e-06
-5.721186999e-06
-5.831096938e-06
-5.94311107e-06
-6.05730393e-06
-6.173753733e-06
-6.292542489e-06
-6.413756088e-06
-6.537484555e-06
-6.663822144e-06
-6.792867449e-06
-6.924723652e-06
-7.05949858e-06
-7.197304969e-06
-7.338260574e-06
-7.482488367e-06
-7.630116732e-06
-7.781279614e-06
-7.936116718e-06
-8.094773743e-06
-8.257402566e-06
-8.424161421e-06
-8.595215151e-06
-8.770735467e-06
-8.950901079e-06
-9.135897984e-06
-9.32591983e-06
-9.521167935e-06
-9.721851768e-06
-9.928189187e-06
-1.014040664e-05
-1.035873954e-05
-1.058343258e-05
-1.081474005e-05
-1.105292603e-05
-1.129826489e-05
-1.155104139e-05
-1.181155083e-05
-1.208009838e-05
-1.235699402e-05
-1.26426498e-05
-1.293560198e-05
-1.323809544e-05
-1.355185026e-05
-1.387953147e-05
-1.421685333e-05
-1.456412118e-05
-1.49217628e-05
-1.529022633e-05
-1.566998534e-05
-1.60615371e-05
-1.646540506e-05
-1.688214101e-05
-1.731232868e-05
-1.775656703e-05
-1.821593708e-05
-1.869858991e-05
-1.919838913e-05
-1.971587578e-05
-2.025188582e-05
-2.080532503e-05
-2.137731003e-05
-2.197005929e-05
-2.25845069e-05
-2.322158039e-05
-2.388227838e-05
-2.456766473e-05
-2.527887044e-05
-2.601709967e-05
-2.678363636e-05
-2.757985195e-05
-2.84072151e-05
-2.926730104e-05
-3.016180358e-05
-3.109254814e-05
-3.206150587e-05
-3.307081042e-05
-3.412277655e-05
-3.521992063e-05
-3.636498469e-05
-3.756096248e-05
-3.881113015e-05
-4.011907943e-05
-4.148875653e-05
-4.292450499e-05
-4.443111461e-05
-4.60138768e-05
-4.767864651e-05
-4.943191313e-05
-5.128087961e-05
-5.323355261e-05
-5.529884365e-05
-5.748668449e-05
-5.980815594e-05
-6.227563489e-05
-6.490295939e-05
-6.770561536e-05
-7.070094831e-05
-7.390840047e-05
-7.734978123e-05
-8.104957024e-05
-8.503526144e-05
-8.93377494e-05
-9.399176841e-05
-9.903638509e-05
-0.0001045155566
-0.0001104787593
-0.0001169816987
-0.000124087111
-0.0001318656662
-0.0001403969878
-0.0001497708015
-0.0001600882333
-0.0001714632692
-0.0001840244048
-0.0001979165018
-0.0002133028812
-0.0002303676846
-0.0002493185275
-0.0002703894981
-0.000293844526
-0.0003199811811
-0.0003491349493
-0.0003816840453
-0.0004180548304
-0.000458727909
-0.0005042449888
-0.0005552165979
-0.0006123307633
-0.0006763627727
-0.0007481861494
-0.0008287849862
-0.0009192678115
-0.00102088317
-0.001135037126
-0.001263312922
-0.001407493061
-0.001569584098
-0.001751844458
-0.00195681569
-0.002187357492
-0.002446687049
-0.002738423111
-0.003066635477
-0.003435900412
-0.003851362812
-0.004318805874
-0.00484472911
-0.005436435799
-0.006102130929
-0.006851030817
-0.007693485954
-0.008641118371
-0.009706975612
-0.01090570276
-0.01225373526
-0.01376951433
-0.01547372827
-0.01738958227
-0.01954310019
-0.02196346232
-0.02468338334
-0.02773953474
-0.03117301834
-0.03502989557
-0.03936178022
-0.04422650261
-0.04968885278
-0.05582141424
-0.06270549752
-0.07043218778
-0.07910352002
-0.08883379697
-0.0997510684
-0.1119987924
-0.1257376974
-0.1411478713
-0.1584311016
-0.1778134915
-0.1995483767
-0.2239195663
-0.2512449202
-0.2818802738
-0.3162236887
-0.3547199918
-0.3978657443
-0.4462132264
-0.5003762486
-0.5610335579
-0.6289321486
-0.7048887457
-0.7897882665
-0.8845804661
-0.990267622
-1.107888534
-1.238491487
-1.383095553
-1.542636957
-1.717897287
-1.90941003
-2.117341917
-2.341345637
-2.580380989
-2.832502606
-3.094614415
-3.36219242
-3.628982835
-3.88668257
-4.124613031
-4.329396601
-4.484638879
-4.570619917
-4.56396361
-4.437276411
-4.158710711
-3.691420514
-2.992952532
-2.0145345
-0.7005452302
1.011778369
3.192074364
5.915796523
9.262159296
13.31104556
18.1368142
23.87931579
30.46097357
38.3410798
46.57165822
54.85651062
62.0595847
71.06419965
79.17708817
85.87661781
90.96976961
95.22305075
100.5202492
108.6562269
119.4672767
131.4591124
144.0683642
157.2422022
174.2163384
193.9793757
219.4809751
252.3333252
289.1212728
336.1071924
386.8092351
436.8690405
476.0461266
507.176791
522.4524
519.7928783
499.5027738
465.3573963
420.6385686
373.9476726
319.8842519
266.5783621
212.2424575
160.3976263
112.6869988
70.07134756
33.30876149
3.987195751
-15.44546471
-29.74251208
-39.28398691
-44.70056004
-47.15133359
-48.5578437
-49.4590586
-50.19595427
-50.54902116
-46.770432
-42.81591207
-40.24948961
-37.15647415
-33.88207466
-30.65861608
-27.61850359
-24.82519281
-22.25819134
-19.98541786
-17.95230527
-16.14003057
-14.52810688
-13.09611679
-11.82468994
-10.69592986
-9.693561901
-8.802936946
-8.01099187
-7.306053787
-6.677797842
-6.117110432
-5.615962744
-5.16729429
-4.764903317
-4.403351203
-4.077870944
-3.784286869
-3.518942251
-3.278634783
-3.060559077
-2.862256474
-2.681570629
-2.516608563
-2.36570667
-2.227401075
-2.100401854
-1.983570637
-1.875901181
-1.776502523
-1.68458439
-1.599444549
-1.52045786
-1.447066774
-1.378773106
-1.31513089
-1.255740171
-1.200241613
-1.148311797
-1.099659125
-1.054020242
-1.011156908
-0.9708532563
-0.932913386
-0.8971592473
-0.8634287768
-0.8315742542
-0.8014608475
-0.7729653244
-0.7459749103
-0.7203862705
-0.6961046074
-0.6730428499
-0.651120936
-0.6302651626
-0.6104076095
-0.5914856164
-0.5734413187
-0.5562212228
-0.5397758294
-0.5240592873
-0.5090290856
-0.4946457724
-0.4808726991
-0.4676757911
-0.4550233377
-0.4428857999
-0.4312356395
-0.420047159
-0.4092963575
-0.3989608006
-0.3890194987
-0.3794527981
-0.3702422808
-0.3613706708
-0.352821752
-0.3445802895
-0.3366319592
-0.3289632826
-0.321561567
-0.3144148511
-0.3075118534
-0.3008419266
-0.2943950146
-0.2881615164
-0.2821326368
-0.2762997579
-0.2706547948
-0.2651900909
-0.2598984016
-0.2547728481
-0.2498068979
-0.2449943406
-0.2403292714
-0.2358060708
-0.2314193884
-0.2271641272
-0.2230354294
-0.2190286617
-0.2151394035
-0.2113634345
-0.207696724
-0.2041354194
-0.2006758382
-0.1973144574
-0.1940479056
-0.1908729553
-0.1877865148
-0.1847856216
-0.1818674357
-0.1790292336
-0.1762684019
-0.173582433
-0.1709689183
-0.1684255451
-0.1659500908
-0.163540419
-0.1611944757
-0.1589102851
-0.1566859461
-0.1545196285
-0.1524095712
-0.1503540772
-0.1483515117
-0.1464002994
-0.1444989219
-0.1426459148
-0.1408398657
-0.1390794122
-0.1373632393
-0.1356900771
-0.1340587005
-0.1324679255
-0.1309166082
-0.1294036439
-0.127927964
-0.126488536
-0.1250843613
-0.123714474
-0.1223779393
-0.1210738529
-0.1198013397
-0.1185595518
-0.117347669
-0.1161648962
-0.1150104632
-0.1138836238
-0.1127836551
-0.1117098557
-0.1106615457
-0.1096380662
-0.1086387774
-0.1076630588
-0.1067103085
-0.1057799419
-0.1048713917
-0.103984107
-0.1031175529
-0.1022712096
-0.101444572
-0.1006371496
-0.09984846564
-0.09907805642
-0.09832547092
-0.09759027123
-0.09687203067
-0.09617033455
-0.09548477931
-0.09481497196
-0.09416053046
-0.09352108234
-0.09289626531
-0.09228572619
-0.09168912127
-0.09110611551
-0.09053638234
-0.08997960388
-0.08943546981
-0.08890367771
-0.08838393296
-0.0878759478
-0.08737944197
-0.08689414158
-0.08641977976
-0.0859560958
-0.08550283525
-0.08505974986
-0.08462659718
-0.08420314015
-0.08378914752
-0.08338439336
-0.08298865668
-0.08260172175
-0.0822233775
-0.08185341781
-0.08149164101
-0.08113784982
-0.08079185145
-0.0804534572
-0.08012248265
-0.07979874683
-0.07948207316
-0.07917228861
-0.07886922356
-0.07857271232
-0.07828259239
-0.07799870458
-0.07772089304
-0.07744900499
-0.07718289094
-0.07692240393
-0.07666740036
-0.07641773927
-0.07617328238
-0.07593389413
-0.07569944152
-0.07546979441
-0.07524482452
-0.07502440645
-0.07480841701
-0.07459673523
-0.07438924232
-0.07418582175
-0.07398635914
-0.07379074202
-0.07359886008
-0.07341060459
-0.07322586927
-0.07304454928
-0.07286654159
-0.0726917453
-0.07252006081
-0.07235139036
-0.0721856378
-0.07202270872
-0.07186251002
-0.07170495028
-0.0715499395
-0.07139738915
-0.0712472121
-0.07109932257
-0.07095363624
-0.07081006994
-0.07066854192
-0.07052897161
-0.07039127975
-0.0702553881
-0.07012121984
-0.069988699
-0.06985775103
-0.06972830232
-0.06960028036
-0.06947361359
-0.06934823177
-0.06922406516
-0.06910104556
-0.06897910537
-0.06885817796
-0.06873819784
-0.06861910021
-0.06850082118
-0.06838329778
-0.06826646795
-0.06815027028
-0.06803464435
-0.06791953048
-0.06780486971
-0.06769060403
-0.0675766758
-0.06746302865
-0.06734960658
-0.06723635435
-0.06712321746
-0.06701014217
-0.0668970753
-0.06678396449
-0.06667075777
-0.06655740404
-0.06644385282
-0.06633005427
-0.06621595872
-0.06610151796
-0.06598668355
-0.06587140817
-0.06575564481
-0.06563934711
-0.06552246923
-0.06540496604
-0.0652867927
-0.06516790515
-0.06504825967
-0.06492781326
-0.06480652327
-0.06468434756
-0.06456124467
-0.0644371735
-0.06431209342
-0.06418596433
-0.06405874671
-0.06393040108
-0.06380088902
-0.06367017197
-0.06353821194
-0.06340499863
-0.06327043936
-0.06313452479
-0.06299721757
-0.0628584858
-0.0627182985
-0.06257662489
-0.06243342916
-0.06228867676
-0.06214233368
-0.06199436672
-0.06184474321
-0.06169343138
-0.0615403997
-0.06138561736
-0.06122905392
-0.06107067945
-0.06091046443
-0.06074837995
-0.06058439744
-0.06041848892
-0.06025062659
-0.06008078339
-0.05990893262
-0.05973504806
-0.05955910386
-0.05938107476
-0.05920093582
-0.05901866278
-0.05883423163
-0.05864761889
-0.05845880164
-0.0582677574
-0.05807446406
-0.0578789002
-0.05768104464
-0.05748087698
-0.05727837695
-0.05707352518
-0.05686630242
-0.05665669024
-0.0564446705
-0.05623022565
-0.05601333874
-0.05579399319
-0.05557217298
-0.05534786285
-0.05512104764
-0.05489171314
-0.05465984546
-0.05442543134
-0.05418845807
-0.05394891349
-0.05370678596
-0.05346206452
-0.05321473872
-0.05296479864
-0.05271223513
-0.05245703929
-0.05219920324
-0.05193871953
-0.05167558126
-0.05140978207
-0.05114131648
-0.05087017948
-0.05059636675
-0.05031987451
-0.05004069985
-0.04975884022
-0.0494742939
-0.04918706001
-0.04889713789
-0.04860452805
-0.04830923132
-0.04801124951
-0.04771058491
-0.04740724052
-0.04710122026
-0.04679252864
-0.04648117078
-0.0461671527
-0.04585048115
-0.04553116357
-0.04520920806
-0.04488462367
-0.04455742008
-0.04422760774
-0.04389519794
-0.04356020275
-0.04322263486
-0.04288250801
-0.04253983654
-0.04219463565
-0.04184692141
-0.04149671047
-0.04114402068
-0.04078887037
-0.0404312788
-0.0400712662
-0.03970885337
-0.03934406222
-0.03897691524
-0.03860743604
-0.03823564878
-0.03786157874
-0.03748525195
-0.03710669527
-0.03672593638
-0.03634300394
-0.03595792747
-0.03557073718
-0.03518146439
-0.0347901412
-0.03439680044
-0.0340014759
-0.03360420249
-0.03320501554
-0.0328039516
-0.03240104786
-0.03199634272
-0.03158987493
-0.03118168452
-0.03077181233
-0.03036029983
-0.02994718966
-0.0295325249
-0.02911635003
-0.02869870982
-0.02827965021
-0.0278592179
-0.02743746036
-0.02701442591
-0.02659016363
-0.02616472346
-0.02573815616
-0.0253105131
-0.02488184661
-0.02445220957
-0.0240216558
-0.02359023968
-0.0231580164
-0.0227250418
-0.02229137237
-0.02185706537
-0.02142217845
-0.02098677033
-0.02055089982
-0.02011462681
-0.01967801125
-0.01924111423
-0.018803997
-0.01836672155
-0.01792935053
-0.01749194718
-0.01705457526
-0.01661729968
-0.01618018586
-0.01574330072
-0.01530671204
-0.01487048972
-0.01443470524
-0.0139994331
-0.01356472646
-0.01313071507
-0.01269746178
-0.0122650597
-0.01183360941
-0.01140322115
-0.01097401088
-0.01054610679
-0.01011965019
-0.009694802177
-0.009271738751
-0.008850652021
-0.008431747948
-0.008015244204
-0.007601368991
-0.007190346487
-0.006782410754
-0.006377752422
-0.005976645045
-0.005579055464
-0.005186058321
-0.004795360255
-0.004413299599
-0.004032217107
-0.003659906795
-0.003301620008
-0.002960276546
-0.002611881454
0.0004457275464
0.008927336027
0.01588230564
0.0220452792
0.02741149624
0.03198926033
0.03580024328
0.0388703449
0.0412309452
0.04291823981
0.04397254979
0.0444377853
0.04436081436
0.04379084527
0.04277881223
0.04137676945
0.03963729814
0.03761293172
0.03535560278
0.03291611466
0.03034364302
0.02768526946
0.02498555106
0.02228613115
0.01962539242
0.01703815905
0.01455544949
0.01220428453
0.01000755266
0.007983936381
0.006147899558
0.004509737422
0.003075688029
0.001848103227
0.0008256757994
3.718074905e-06
-0.0006255143301
-0.001072460359
-0.001349861869
-0.001472351318
-0.001456028261
-0.001318034566
-0.001076137928
-0.0007483326941
-0.0003524664074
9.410071255e-05
0.0005747975176
0.001074100341
0.001577745144
0.002072892085
0.002548242775
0.002994111664
0.003402454308
0.003766856817
0.004082490149
0.004346035547
0.004555585465
0.004710525945
0.004811405685
0.004859796227
0.004858148263
0.004809647488
0.00471807323
0.004587662732
0.004422982847
0.004228810711
0.004010024376
0.003771504115
0.003518044344
0.003254276737
0.002984603822
0.002713143201
0.002443681807
0.002179639982
0.001924044755
0.001679512048
0.001448237301
0.001231993878
0.00103213895
0.0008496261223
0.0006850242276
0.0005385415734
0.0004100549916
0.0002991427467
0.0002051206232
0.0001270801514
6.39282615e-05
1.442730683e-05
-2.27652779e-05
-4.905857116e-05
-6.589174819e-05
-7.470030689e-05
-7.688553874e-05
-7.37876742e-05
-6.666306629e-05
-5.666561315e-05
-4.483252403e-05
-3.207439425e-05
-1.91694597e-05
-6.76177933e-06
4.636967024e-06
1.464246995e-05
2.299002153e-05
2.952447382e-05
3.418843641e-05
3.700921518e-05
3.808500168e-05
3.757077454e-05
3.566435791e-05
3.259301117e-05
2.860089654e-05
2.393768471e-05
1.884852096e-05
1.356549492e-05
8.300699927e-06
3.240924639e-06
-1.456065373e-06
-5.663711575e-06
-9.287432993e-06
-1.226412804e-05
-1.456058349e-05
-1.617098144e-05
-1.711370062e-05
-1.742762534e-05
-1.71681563e-05
-1.640310686e-05
-1.520866312e-05
-1.366554107e-05
-1.185548569e-05
-9.858180312e-06
-7.748650845e-06
-5.595198536e-06
-3.457870345e-06
-1.387463023e-06
5.749807476e-07
2.398221254e-06
4.060482532e-06
5.548790924e-06
6.858067146e-06
7.990037442e-06
8.952039477e-06
9.755790588e-06
1.041616121e-05
1.095001631e-05
1.137515842e-05
1.170938898e-05
1.196972864e-05
1.217177793e-05
1.232925122e-05
1.2453648e-05
1.255407674e-05
1.263719998e-05
1.270729297e-05
1.276639491e-05
1.28145323e-05
1.284999695e-05
1.28696671e-05
1.286934116e-05
1.284408455e-05
1.278857069e-05
1.269740186e-05
1.256540693e-05
1.238791007e-05
1.216095391e-05
1.188149051e-05
1.154752121e-05
1.115819612e-05
1.071386973e-05
1.021611301e-05
9.667686866e-06
9.072481114e-06
8.435421741e-06
7.762355313e-06
7.059910676e-06
6.335350665e-06
5.596415197e-06
4.851163008e-06
4.107817586e-06
3.374620639e-06
2.659700603e-06
1.97094913e-06
1.315920591e-06
7.017420074e-07
1.350423476e-07
-3.781082948e-07
-8.322438391e-07
-1.222542227e-06
-1.544856461e-06
-1.795743603e-06
-1.97249208e-06
-2.073149909e-06
-2.096555106e-06
-2.042363115e-06
-1.911082825e-06
-1.704105472e-06
-1.423731602e-06
-1.073193427e-06
-6.566678571e-07
-1.792749401e-07
3.529370874e-07
9.330257341e-07
1.553211599e-06
2.204952128e-06
2.879042773e-06
3.565736013e-06
4.254881793e-06
4.936085371e-06
5.598877004e-06
6.232890344e-06
6.828047864e-06
7.374741281e-06
7.864008043e-06
8.287695572e-06
8.638606942e-06
8.910630468e-06
9.098838847e-06
9.199566571e-06
9.210455598e-06
9.130472506e-06
8.95989537e-06
8.700274009e-06
8.354359725e-06
7.926017698e-06
7.420112603e-06
6.84238097e-06
6.199292509e-06
5.497901276e-06
4.745696473e-06
3.950456624e-06
3.120110775e-06
2.262611626e-06
1.385829747e-06
4.974599318e-07
-3.950431824e-07
-1.284516799e-06
-2.164117909e-06
-3.027345106e-06
-3.868048528e-06
-4.680440222e-06
-5.459106717e-06
-6.199015745e-06
-6.895512858e-06
-7.544283294e-06
-8.141262811e-06
-8.682478381e-06
-9.163824565e-06
-9.580815901e-06
-9.928343387e-06
-1.020085061e-05
-1.038824779e-05
)
;

boundaryField
{
    inlet
    {
        type            calculated;
        value           uniform 0;
    }
    outlet
    {
        type            calculated;
        value           uniform -9.815359163e-06;
    }
    wall
    {
        type            empty;
    }
}


// ************************************************************************* //
