/*--------------------------------*- C++ -*----------------------------------*\
  =========                 |
  \\      /  F ield         | OpenFOAM: The Open Source CFD Toolbox
   \\    /   O peration     | Website:  https://openfoam.org
    \\  /    A nd           | Version:  7
     \\/     M anipulation  |
\*---------------------------------------------------------------------------*/
FoamFile
{
    version     2.0;
    format      ascii;
    class       volScalarField;
    location    "0.000558243009";
    object      ddt0(rho,H2);
}
// * * * * * * * * * * * * * * * * * * * * * * * * * * * * * * * * * * * * * //

dimensions      [1 -3 -1 0 0 0 0];

internalField   nonuniform List<scalar> 
1500
(
-0.002846454236
-0.009529070554
-0.01609135353
-0.01899573495
-0.01741214379
-0.01309718542
-0.008374905907
-0.004669722306
-0.002318393533
-0.001050164818
-0.0004546600398
-0.0002106805187
-0.0001264483241
-0.0001063033605
-0.0001082757912
-0.000115856988
-0.0001230918683
-0.0001279952059
-0.0001299792049
-0.0001289345005
-0.0001249289778
-0.0001181135507
-0.000108691505
-9.690604488e-05
-8.303271049e-05
-6.737325594e-05
-5.025033507e-05
-3.200297369e-05
-1.298280875e-05
6.449084228e-06
2.592510619e-05
4.507422661e-05
6.352570621e-05
8.091383212e-05
9.688387514e-05
0.0001110993095
0.000123250138
0.0001330618478
0.0001403045371
0.0001448015134
0.000146436672
0.0001451600137
0.000140990786
0.0001340179063
0.0001243975531
0.0001123480285
9.81422073e-05
8.209806357e-05
6.456787513e-05
4.592675456e-05
2.656115255e-05
6.857890933e-06
-1.280582289e-05
-3.20710839e-05
-5.060450838e-05
-6.81039487e-05
-8.430276149e-05
-9.897276304e-05
-0.0001119260371
-0.0001230157599
-0.0001321361781
-0.0001392218366
-0.0001442461206
-0.0001472191181
-0.0001481848242
-0.0001472176746
-0.0001444184552
-0.0001399096566
-0.0001338304084
-0.0001263311847
-0.0001175685167
-0.0001076999814
-9.687973367e-05
-8.525483371e-05
-7.296256969e-05
-6.01288878e-05
-4.686797772e-05
-3.328294441e-05
-1.946742423e-05
-5.507930529e-06
8.513344796e-06
2.251555837e-05
3.641636162e-05
5.01294287e-05
6.356257291e-05
7.661660788e-05
8.918503641e-05
0.0001011545879
0.000112406567
0.0001228189136
0.0001322688482
0.0001406359382
0.000147805411
0.0001536715298
0.0001581408601
0.0001611352527
0.0001625944054
0.000162477876
0.0001607664638
0.0001574628991
0.0001525918312
0.0001461991394
0.0001383506319
0.0001291302309
0.0001186377728
0.0001069865626
9.430083489e-05
8.071325823e-05
6.636260057e-05
5.139164598e-05
3.594541261e-05
2.016967728e-05
4.209786842e-06
-1.179031506e-05
-2.768891738e-05
-4.334732276e-05
-5.863066315e-05
-7.340881876e-05
-8.755748358e-05
-0.0001009593824
-0.0001135056169
-0.0001250970816
-0.0001356458764
-0.0001450766193
-0.0001533275686
-0.0001603514721
-0.0001661160845
-0.0001706043197
-0.0001738140398
-0.0001757575116
-0.0001764605872
-0.0001759616876
-0.000174310676
-0.0001715677001
-0.0001678020773
-0.000163091269
-0.0001575199613
-0.0001511792451
-0.0001441658458
-0.0001365813433
-0.0001285312926
-0.0001201241569
-0.0001114699732
-0.0001026786789
-9.385807628e-05
-8.511143498e-05
-7.653478941e-05
-6.821402532e-05
-6.022190985e-05
-5.261523274e-05
-4.543226981e-05
-3.869077601e-05
-3.238671808e-05
-2.649390638e-05
-2.096467433e-05
-1.573165256e-05
-1.07106605e-05
-5.804605883e-06
-9.082647136e-07
4.086316038e-06
9.28406178e-06
1.47811086e-05
2.065938135e-05
2.698186875e-05
3.378890649e-05
4.109575066e-05
4.889160626e-05
5.714021374e-05
6.578196547e-05
7.473741563e-05
8.39119416e-05
9.320121155e-05
0.0001024970435
0.0001116932145
0.0001206907602
0.0001294023408
0.0001377553532
0.000145693546
0.0001531770541
0.0001601809028
0.0001666921915
0.0001727062795
0.0001782223978
0.0001832391682
0.0001877505034
0.0001917423203
0.0001951904135
0.0001980596803
0.0002003047912
0.0002018722118
0.0002027033867
0.0002027387809
0.0002019224298
0.0002002066269
0.0001975564139
0.0001939535668
0.0001893998471
0.0001839193473
0.0001775597942
0.0001703926761
0.0001625121247
0.0001540323941
0.0001450838486
0.0001358073968
0.0001263473618
0.0001168430139
0.0001074191244
9.817626633e-05
8.918181209e-05
8.046287267e-05
7.200257206e-05
6.374103208e-05
5.558219501e-05
4.740715187e-05
3.909384302e-05
3.054202045e-05
2.170128638e-05
1.2598901e-05
3.363104165e-06
-5.762802519e-06
-1.44204236e-05
-2.215438101e-05
-2.845123847e-05
-3.279966885e-05
-3.476945597e-05
-3.410368424e-05
-3.081516397e-05
-2.52752352e-05
-1.828109967e-05
-1.108719448e-05
-5.387370067e-06
-3.238028736e-06
-6.91822398e-06
-1.873070338e-05
-4.07579163e-05
-7.459814407e-05
-0.000121118145
-0.0001802686272
-0.000251015492
-0.0003314411936
-0.0004190643261
-0.0005114102086
-0.0006068380791
-0.0007055959116
-0.0008110176366
-0.0009307572079
-0.001077806308
-0.001271313788
-0.001536046779
-0.00189708835
-0.00232516878
-0.002261835075
-0.00226384057
-0.002298525661
-0.002348164529
-0.002404520784
-0.002464118332
-0.002525545465
-0.002588238394
-0.002651982731
-0.002716731445
-0.002782533543
-0.002849494835
-0.002917754047
-0.002987460954
-0.00305876189
-0.003131792296
-0.003206671084
-0.003283499919
-0.003362363832
-0.003443334311
-0.003526472493
-0.003611830172
-0.003699454189
-0.003789386759
-0.003881670457
-0.003976344955
-0.004073451592
-0.004173031079
-0.004275127146
-0.00437978285
-0.004487043978
-0.004596956614
-0.004709568002
-0.004824927458
-0.004943083862
-0.005064087301
-0.005187989301
-0.00531484116
-0.00544469492
-0.005577603598
-0.005713620603
-0.00585280005
-0.005995195796
-0.006140863295
-0.006289858215
-0.006442236043
-0.006598053655
-0.006757368566
-0.006920237899
-0.007086720377
-0.007256874534
-0.007430760319
-0.007608437159
-0.00778996579
-0.007975407443
-0.008164824057
-0.008358278088
-0.008555832285
-0.008757550105
-0.008963496379
-0.009173735319
-0.009388333028
-0.009607355141
-0.009830868959
-0.01005894115
-0.01029164034
-0.01052903536
-0.01077119513
-0.01101819051
-0.01127009191
-0.01152697095
-0.01178889942
-0.01205595122
-0.01232819907
-0.0126057185
-0.01288858385
-0.01317687155
-0.01347065803
-0.01377002126
-0.01407503946
-0.01438579171
-0.01470235885
-0.01502482033
-0.01535325938
-0.01568775765
-0.01602839958
-0.0163752694
-0.01672845198
-0.01708803432
-0.01745410375
-0.01782674839
-0.018206058
-0.01859212282
-0.01898503434
-0.01938488565
-0.01979176979
-0.02020578203
-0.02062701818
-0.02105557558
-0.02149155284
-0.02193504892
-0.02238616581
-0.02284500459
-0.02331166965
-0.02378626606
-0.02426889919
-0.02475967735
-0.02525870985
-0.02576610715
-0.02628198164
-0.0268064473
-0.02733961895
-0.02788161416
-0.02843255131
-0.02899255124
-0.02956173517
-0.03014022879
-0.03072815664
-0.03132564698
-0.03193282926
-0.03254983544
-0.03317679926
-0.03381385628
-0.03446114531
-0.03511880525
-0.03578697976
-0.03646581259
-0.03715545174
-0.0378560462
-0.03856774784
-0.03929071146
-0.04002509393
-0.04077105602
-0.04152875957
-0.04229836931
-0.04308005459
-0.04387398588
-0.04468033735
-0.04549928741
-0.04633101533
-0.04717570521
-0.04803354363
-0.04890472217
-0.04978943359
-0.05068787655
-0.05160025092
-0.0525267623
-0.05346762
-0.05442303616
-0.05539322809
-0.05637841591
-0.057378826
-0.05839468716
-0.05942623419
-0.06047370522
-0.06153734355
-0.06261739826
-0.06371412163
-0.06482777223
-0.06595861373
-0.06710691429
-0.06827294953
-0.0694569977
-0.07065934497
-0.07188028413
-0.07312011113
-0.07437913094
-0.07565765312
-0.07695599473
-0.07827448007
-0.07961343807
-0.08097320749
-0.08235413313
-0.0837565668
-0.0851808683
-0.08662740662
-0.08809655672
-0.08958870295
-0.09110423945
-0.09264356651
-0.0942070953
-0.09579524635
-0.0974084492
-0.09904714224
-0.1007117766
-0.1024028108
-0.1041207166
-0.1058659749
-0.1076390787
-0.1094405337
-0.1112708554
-0.1131305737
-0.1150202295
-0.116940378
-0.1188915882
-0.1208744416
-0.1228895351
-0.1249374805
-0.1270189045
-0.1291344489
-0.1312847732
-0.133470551
-0.1356924778
-0.1379512612
-0.1402476305
-0.1425823346
-0.1449561394
-0.1473698323
-0.149824223
-0.1523201385
-0.1548584341
-0.1574399818
-0.1600656825
-0.1627364577
-0.165453255
-0.1682170515
-0.1710288478
-0.1738896735
-0.1768005861
-0.179762675
-0.1827770601
-0.1858448918
-0.1889673546
-0.1921456675
-0.1953810848
-0.198674896
-0.2020284306
-0.2054430573
-0.2089201818
-0.2124612557
-0.2160677743
-0.2197412749
-0.223483345
-0.2272956165
-0.2311797742
-0.2351375536
-0.2391707437
-0.2432811908
-0.2474707971
-0.2517415237
-0.2560953953
-0.2605345008
-0.2650609935
-0.269677096
-0.2743851048
-0.2791873859
-0.2840863801
-0.2890846137
-0.294184684
-0.2993892767
-0.3047011643
-0.310123203
-0.3156583392
-0.3213096134
-0.3270801588
-0.3329731898
-0.3389920017
-0.345139922
-0.3514202786
-0.357836542
-0.3643933273
-0.3711071787
-0.3778527608
-0.3847457055
-0.391888335
-0.3994465329
-0.4071222328
-0.4149057661
-0.4227985954
-0.4308046614
-0.438929198
-0.4471779924
-0.4555572338
-0.4640734192
-0.4727329598
-0.4815387367
-0.4905182012
-0.5001698271
-0.510080552
-0.5202411204
-0.5306717089
-0.5412589925
-0.5520116356
-0.5630247464
-0.5743183128
-0.5859008107
-0.5977800525
-0.6099643858
-0.6224627113
-0.6352844
-0.6484391993
-0.6619371861
-0.6757888033
-0.6900048073
-0.7045963096
-0.7195747867
-0.7349520627
-0.7507403342
-0.7669521877
-0.7836005836
-0.8006988953
-0.8182608851
-0.8363007569
-0.854833118
-0.8738730319
-0.8934360013
-0.9135379857
-0.9341954244
-0.9554252207
-0.9772447845
-0.9996720156
-1.022725333
-1.046423661
-1.07078648
-1.095833789
-1.121586155
-1.148064702
-1.175291116
-1.203287691
-1.232077274
-1.261683339
-1.292129953
-1.323441817
-1.355644221
-1.388763122
-1.422825091
-1.457857359
-1.493887783
-1.530944886
-1.569057845
-1.608256501
-1.64857135
-1.690033541
-1.732674899
-1.77652789
-1.82162564
-1.868001929
-1.915691148
-1.964728383
-2.015149257
-2.066990057
-2.12028763
-2.175079385
-2.231403294
-2.289297826
-2.348801935
-2.40995502
-2.47279688
-2.537367675
-2.603707854
-2.671858106
-2.741859302
-2.813752384
-2.887578278
-2.96337783
-3.041191646
-3.12105999
-3.203022617
-3.287118668
-3.373386322
-3.461862802
-3.552583956
-3.645584092
-3.74089557
-3.838548598
-3.938570666
-4.040986175
-4.145815999
-4.253076737
-4.362780157
-4.474932453
-4.589533277
-4.706574903
-4.826040894
-4.947905135
-5.072130005
-5.198665073
-5.327444822
-5.458386849
-5.59138918
-5.726327439
-5.863051706
-6.001382955
-6.141108538
-6.281977937
-6.423697088
-6.565922273
-6.708253553
-6.850226651
-6.991304605
-7.130867696
-7.268202659
-7.40249079
-7.532794214
-7.658041176
-7.777010328
-7.888312851
-7.990374153
-8.081413993
-8.159426256
-8.22215789
-8.267088567
-8.291410816
-8.292013223
-8.265466151
-8.208013032
-8.115601644
-7.983771276
-7.807849989
-7.582881685
-7.303712061
-6.965074117
-6.561666188
-6.08843116
-5.540550579
-4.913785607
-4.204705739
-3.410980981
-2.531700412
-1.567707011
-0.5219300722
0.6003048266
1.791014144
3.03937255
4.331636024
5.651195782
6.978796608
8.292905656
9.570255018
10.78652521
11.91713932
12.93813337
13.82697408
14.56342602
15.13022062
15.51362529
15.70383077
15.69526814
15.48672287
15.08162365
14.48835864
13.72085403
12.79917787
11.74947684
10.60228382
9.386302532
7.988913133
6.563094693
4.211273105
2.319360593
1.179563035
3.049410548
0.3120505353
-1.427466562
-2.713774431
-3.819125535
-4.860882829
-5.81531474
-6.886837028
-7.968809486
-8.953931267
-9.899365338
-11.84238693
-5.040281438
-6.902124999
-8.5296053
-9.504241973
-5.094315513
-5.320298244
-5.721374548
-6.335658255
-1.5702924
-3.215260682
-5.363171312
-7.909540212
-10.74343605
-13.71572893
-16.61797378
-17.71818111
-20.31908177
-22.43278805
-25.10746895
-27.98183837
-31.02662617
-34.18852834
-37.39513714
-40.19458711
-41.87468295
-43.34590436
-44.52182429
-45.28193618
-45.82513811
-46.36906151
-46.94607487
-47.43924745
-47.56058965
-46.28318095
-44.77253422
-43.60912065
-42.09779613
-40.3444013
-38.44577665
-36.47438616
-34.48139293
-32.48606856
-30.54529674
-28.6602094
-26.84332618
-25.10398612
-23.44845748
-21.88064625
-20.40254216
-19.01457288
-17.71589963
-16.50469537
-15.37828717
-14.33341144
-13.36636861
-12.4731581
-11.6495989
-10.89140479
-10.19429676
-9.554044547
-8.96651787
-8.427731649
-7.933869001
-7.481301446
-7.066601645
-6.686550265
-6.338137896
-6.018563559
-5.725230317
-5.45573873
-5.207878843
-4.979621003
-4.769105927
-4.574634544
-4.394657527
-4.227764975
-4.072676248
-3.928230138
-3.793375459
-3.667162053
-3.548732302
-3.437313159
-3.332208725
-3.232793247
-3.138504775
-3.048839142
-2.963344557
-2.881616567
-2.803293433
-2.728051973
-2.655603713
-2.585691393
-2.518085826
-2.45258298
-2.389001446
-2.32718
-2.266975574
-2.208261256
-2.150924615
-2.094866092
-2.039997679
-1.986241569
-1.933529115
-1.881799735
-1.831000058
-1.7810831
-1.732007507
-1.683736938
-1.636239468
-1.589487052
-1.543455087
-1.49812199
-1.453468795
-1.409478885
-1.366137646
-1.323432233
-1.281351351
-1.239884994
-1.199024343
-1.158761545
-1.119089595
-1.080002207
-1.041493706
-1.003558941
-0.9661931725
-0.9293920312
-0.8931514224
-0.8574640813
-0.8223331079
-0.7877509828
-0.7537156344
-0.7202230298
-0.6872699504
-0.6548530969
-0.622969252
-0.5916151359
-0.5607875156
-0.5304830971
-0.5006985541
-0.4714305147
-0.4426755813
-0.4144302773
-0.3866911007
-0.3594544904
-0.3327168413
-0.3064744684
-0.2807236767
-0.2554607014
-0.2306817275
-0.2063829184
-0.1825603812
-0.1592101855
-0.1363283746
-0.113910963
-0.0919539247
-0.070453236
-0.04940481245
-0.02880459281
-0.00864847928
0.01106763411
0.03034785001
0.04919628662
0.06761705856
0.08561430213
0.1031921028
0.1203545759
0.1371058288
0.1534499468
0.169391002
0.1849330627
0.2000801728
0.2148363505
0.2292056094
0.243191949
0.2567993174
0.2700316605
0.2828929025
0.2953869197
0.3075175952
0.3192887531
0.3307042057
0.34176773
0.3524830877
0.3628539956
0.3728841342
0.3825771838
0.3919367555
0.4009664531
0.4096698494
0.4180504831
0.4261118445
0.4338574201
0.4412906528
0.4484149387
0.4552336667
0.4617501918
0.4679678072
0.4738898256
0.4795194822
0.4848600133
0.4899146052
0.4946864246
0.4991786137
0.5033942702
0.5073364678
0.5110082525
0.5144126622
0.517552661
0.5204312295
0.5230512966
0.5254157688
0.527527538
0.5293894428
0.5310043256
0.5323749806
0.5335041966
0.5343947179
0.5350492766
0.5354705836
0.5356613044
0.5356241069
0.5353616304
0.5348764731
0.5341712356
0.5332484728
0.5321107416
0.5307605595
0.5292004324
0.5274328478
0.5254602613
0.5232851102
0.5209098299
0.5183368203
0.5155684565
0.5126071164
0.5094551404
0.5061148648
0.5025885951
0.4988786257
0.494987242
0.4909166969
0.4866692384
0.4822470817
0.4776524603
0.4728875576
0.4679545527
0.4628556241
0.4575929093
0.4521685472
0.4465846645
0.4408433668
0.4349467495
0.4288968832
0.422695852
0.4163456989
0.409848463
0.4032061772
0.3964208598
0.3894945165
0.3824291215
0.3752266762
0.3678891403
0.3604184684
0.3528166096
0.3450855014
0.3372270676
0.3292432155
0.3211358541
0.3129068681
0.3045581595
0.2960915823
0.2875090086
0.2788123011
0.2700032884
0.2610838165
0.2520557136
0.242920799
0.233680874
0.2243377486
0.2148932125
0.205349053
0.1957070464
0.1859689619
0.1761365648
0.1662116034
0.1561958303
0.1460909816
0.1358987933
0.1256209853
0.1152592863
0.1048153981
0.09429103988
0.08368790096
0.07300767585
0.06225205119
0.05142271478
0.04052132666
0.02954957778
0.01850911207
0.007401595849
-0.003771314157
-0.01500798038
-0.02630675722
-0.03766600475
-0.04908409217
-0.06055939926
-0.07209029741
-0.08367517264
-0.09531241554
-0.1070004145
-0.1187375744
-0.1305222798
-0.1423529554
-0.1542280062
-0.1661458434
-0.1781048864
-0.1901035629
-0.2021402971
-0.2142135269
-0.2263216785
-0.2384631942
-0.2506365211
-0.2628401139
-0.2750723933
-0.287331852
-0.299616922
-0.3119260807
-0.3242577882
-0.3366105144
-0.3489827303
-0.3613729211
-0.3737795579
-0.3862011329
-0.3986361267
-0.4110830382
-0.423540359
-0.4360065823
-0.4484802173
-0.4609597696
-0.4734437452
-0.4859306572
-0.4984190317
-0.5109073669
-0.5233942132
-0.5358780827
-0.548357507
-0.5608331716
-0.5732992774
-0.5857565607
-0.5982035638
-0.610639282
-0.6230613776
-0.6354688788
-0.6478603071
-0.6602342555
-0.6725892935
-0.6849239963
-0.6972369364
-0.7095267126
-0.7217919052
-0.7340311156
-0.7462429382
-0.7584259788
-0.7705788396
-0.7827001446
-0.7947885075
-0.8068425607
-0.8188609219
-0.8308422336
-0.8427851377
-0.8546882837
-0.8665503186
-0.8783699078
-0.8901457099
-0.9018764087
-0.9135606735
-0.9251971896
-0.9367846532
-0.9483217645
-0.9598072246
-0.9712397561
-0.9826180721
-0.993940913
-1.005207002
-1.0164151
-1.027563947
-1.038652319
-1.049678978
-1.060642706
-1.071542298
-1.082376549
-1.093144263
-1.103844274
-1.114475393
-1.12503647
-1.13552635
-1.145943897
-1.156287982
-1.166557488
-1.176751306
-1.186868347
-1.19690753
-1.20686778
-1.216748051
-1.22654728
-1.236264453
-1.245898555
-1.255448579
-1.264913526
-1.274292431
-1.283584331
-1.292788285
-1.301903354
-1.310928635
-1.319863217
-1.328706218
-1.337456788
-1.346114053
-1.3546772
-1.363145399
-1.371517867
-1.379793815
-1.387972476
-1.396053116
-1.404035013
-1.411917451
-1.419699751
-1.427381249
-1.4349613
-1.442439271
-1.449814565
-1.457086598
-1.464254804
-1.471318648
-1.478277613
-1.485131195
-1.491878931
-1.498520366
-1.505055072
-1.511482654
-1.517802717
-1.524014924
-1.530118934
-1.536114442
-1.542001174
-1.547778866
-1.553447297
-1.559006254
-1.564455571
-1.569795084
-1.575024677
-1.580144255
-1.585153745
-1.5900531
-1.594842309
-1.599521389
-1.604090372
-1.608549336
-1.612898381
-1.617137626
-1.621267221
-1.625287373
-1.629198276
-1.633000183
-1.636693358
-1.640278123
-1.643754787
-1.647123722
-1.650385329
-1.653540017
-1.656588251
-1.659530493
-1.662367281
-1.665099138
-1.667726641
-1.670250397
-1.672671036
-1.674989217
-1.677205629
-1.679320997
-1.681336074
-1.683251631
-1.685068483
-1.686787455
-1.688409422
-1.689935268
-1.691365914
-1.692702306
-1.693945412
-1.695096236
-1.696155785
-1.69712513
-1.698005319
-1.698797466
-1.699502663
-1.700122072
-1.700656839
-1.701108147
-1.701477201
-1.701765225
-1.701973446
-1.702103146
-1.70215559
-1.702132104
-1.702033998
-1.701862651
-1.701619435
-1.70130579
-1.700921066
-1.700470966
-1.699954992
-1.699374797
-1.698732096
-1.698028718
-1.697266126
-1.696447204
-1.695573614
-1.69464756
-1.693671242
-1.692646883
-1.691576519
-1.690461847
-1.689304252
-1.688103629
-1.686859794
-1.685567539
-1.684227337
-1.682809152
-1.681373137
-1.679671623
-1.678185194
-1.676124533
-1.673979808
-1.671895562
-1.669581992
-1.664098064
-1.572197579
-1.277118722
-1.009729969
-0.7578571788
-0.5222857502
-0.3042187763
-0.1043914143
0.07662513147
0.2384445192
0.3808732055
0.5038928846
0.6076558578
0.692475623
0.7588168273
0.8072840413
0.8386096447
0.8536409675
0.8533269202
0.8387042987
0.8108839261
0.7710367956
0.7203803305
0.6601649164
0.5916607943
0.516145397
0.434891267
0.349154538
0.2601641517
0.1691117077
0.07714218571
-0.01465467264
-0.1052520423
-0.1936929719
-0.2790964039
-0.3606624112
-0.43767651
-0.5095131472
-0.5756382508
-0.6356109069
-0.6890841221
-0.7358046513
-0.7756118903
-0.8084358201
-0.8342940022
-0.8532876291
-0.8655966463
-0.871473984
-0.8712389398
-0.8652697913
-0.8539957231
-0.8378881889
-0.8174518427
-0.7932151802
-0.7657210932
-0.7355174788
-0.7031481226
-0.6691440342
-0.6340153985
-0.59824434
-0.5622786117
-0.5265263406
-0.4913519228
-0.4570731
-0.4239592403
-0.3922308035
-0.3620599341
-0.3335720818
-0.3068485544
-0.2819298416
-0.258819586
-0.2374890258
-0.2178817511
-0.1999186172
-0.1835026714
-0.1685239522
-0.1548640479
-0.1424003165
-0.1310096834
-0.1205719646
-0.110972677
-0.1021053125
-0.093873078
-0.08619011562
-0.07898222486
-0.0721871304
-0.06575433309
-0.05964460603
-0.05382918483
-0.0482887135
-0.04301200778
-0.03799469262
-0.03323777196
-0.02874618556
-0.02452739974
-0.02059007661
-0.0169428606
-0.01359331124
-0.01054700483
-0.007806823145
-0.005372433651
-0.003239966032
-0.001401876379
0.0001530120365
0.001439308727
0.002474719018
0.003279593886
0.003876395419
0.004289103645
0.004542595738
0.004662020537
0.004672196181
0.004597049866
0.004459119877
0.00427913261
0.004075664387
0.003864895652
0.00366045666
0.003473364186
0.003312043566
0.003182427463
0.003088120694
0.003030618869
0.003009569277
0.003023058384
0.003067914167
0.003140010726
0.003234563754
0.003346408666
0.003470250302
0.003600882392
0.003733370592
0.003863196903
0.003986366756
0.004099478484
0.004199759702
0.004285072624
0.004353893579
0.004405272077
0.004438773966
0.004454413687
0.004452580127
0.004433961993
0.004399473143
0.004350183624
0.004287258134
0.004211900971
0.004125312666
0.004028653474
0.003923018642
0.00380941998
0.003688776993
0.003561913113
0.003429558527
0.003292356827
0.003150874732
0.003005614062
0.002857025509
0.002705522261
0.002551493607
0.00239531854
0.002237377691
0.00207806412
0.001917793062
0.001757008842
0.001596190959
0.001435857498
0.00127656611
0.001118913656
0.0009635327693
0.0008110867799
0.0006622620914
0.0005177594667
0.0003782827434
0.0002445271341
0.0001171658261
-3.163169061e-06
-0.0001158707268
-0.0002204297526
-0.0003163874968
-0.0004033762324
-0.0004811231998
-0.0005494577509
-0.0006083170395
-0.0006577494097
-0.0006979157041
-0.0007290883912
-0.0007516489242
-0.000766083352
-0.0007729764211
-0.0007730041638
-0.000766926127
-0.0007555760867
-0.0007398521064
-0.0007207069262
-0.0006991366656
-0.0006761699963
-0.0006528564558
-0.0006302545393
-0.0006094190583
-0.0005913882359
-0.0005771705086
-0.0005677302409
-0.0005639737417
-0.0005667349927
-0.0005767611289
-0.0005946985931
-0.0006210795458
-0.0006563096039
-0.000700656666
-0.0007542415836
-0.0008170309485
-0.0008888319465
-0.0009692904863
-0.001057891425
-0.00115396255
-0.00125668107
-0.001365083218
-0.001478076804
-0.001594456227
-0.001712919927
-0.001832089547
-0.00195053089
-0.002066775747
-0.002179344204
-0.002286767239
-0.002387608516
-0.002480485632
-0.002564089701
-0.002637202981
-0.002698714788
-0.002747634409
-0.0027831017
-0.00280439473
-0.002810935044
-0.002802290048
-0.002778173357
-0.002738443337
-0.002683099571
-0.00261227816
-0.002526244884
-0.002425386087
-0.002310196278
-0.002181261532
-0.002039237206
-0.001884818339
-0.001718696246
-0.001541489464
-0.001353542813
-0.001154699475
-0.0009435259428
)
;

boundaryField
{
    inlet
    {
        type            calculated;
        value           uniform 0;
    }
    outlet
    {
        type            calculated;
        value           uniform -0.0008135158526;
    }
    wall
    {
        type            empty;
    }
}


// ************************************************************************* //
