/*--------------------------------*- C++ -*----------------------------------*\
  =========                 |
  \\      /  F ield         | OpenFOAM: The Open Source CFD Toolbox
   \\    /   O peration     | Website:  https://openfoam.org
    \\  /    A nd           | Version:  7
     \\/     M anipulation  |
\*---------------------------------------------------------------------------*/
FoamFile
{
    version     2.0;
    format      ascii;
    class       volScalarField;
    location    "0.000558243009";
    object      ddt0(rho,CH3CO);
}
// * * * * * * * * * * * * * * * * * * * * * * * * * * * * * * * * * * * * * //

dimensions      [1 -3 -1 0 0 0 0];

internalField   nonuniform List<scalar> 
1500
(
-3.554900946e-15
-1.093627723e-14
-1.672693147e-14
-1.723059538e-14
-1.344659309e-14
-8.474481956e-15
-4.493202462e-15
-2.067687794e-15
-8.548782839e-16
-3.409807334e-16
-1.563837393e-16
-1.046640297e-16
-9.930555868e-17
-1.074880953e-16
-1.179584106e-16
-1.271979715e-16
-1.341567863e-16
-1.385338709e-16
-1.402697438e-16
-1.394008541e-16
-1.360199944e-16
-1.302637334e-16
-1.223059151e-16
-1.123523898e-16
-1.006359376e-16
-8.741140332e-17
-7.295126245e-17
-5.754180066e-17
-4.147993451e-17
-2.507053463e-17
-8.62397159e-18
7.546488032e-18
2.312781671e-17
3.78112205e-17
5.129716799e-17
6.330148793e-17
7.356240179e-17
8.184808937e-17
8.796439844e-17
9.176210813e-17
9.314315999e-17
9.206531938e-17
8.854482714e-17
8.265675804e-17
7.45329868e-17
6.435785018e-17
5.23617716e-17
3.881326176e-17
2.400980303e-17
8.268163783e-18
-8.085309659e-18
-2.47239548e-17
-4.132922631e-17
-5.759803364e-17
-7.324883757e-17
-8.802647719e-17
-1.017057746e-16
-1.140940315e-16
-1.250325552e-16
-1.343973562e-16
-1.420991291e-16
-1.480826009e-16
-1.523252984e-16
-1.548357449e-16
-1.556510969e-16
-1.548342185e-16
-1.524702257e-16
-1.486625636e-16
-1.435287283e-16
-1.371957958e-16
-1.297959566e-16
-1.214622832e-16
-1.123249571e-16
-1.025081679e-16
-9.212785082e-17
-8.12903626e-17
-7.009212999e-17
-5.862021808e-17
-4.695369468e-17
-3.516561154e-17
-2.33253707e-17
-1.150123438e-17
2.3726374e-19
1.181723153e-17
2.316082703e-17
3.418429725e-17
4.479771392e-17
5.490542891e-17
6.44072112e-17
7.319998806e-17
8.118007816e-17
8.824578079e-17
9.430017436e-17
9.925396643e-17
1.030282531e-16
1.055570369e-16
1.067893914e-16
1.066911607e-16
1.052461257e-16
1.024565872e-16
9.834335551e-17
9.294516895e-17
8.631759464e-17
7.853149709e-17
6.96711796e-17
5.983231996e-17
4.911982621e-17
3.764572915e-17
2.552721164e-17
1.288484838e-17
-1.58897943e-19
-1.348092282e-17
-2.695848415e-17
-4.047002379e-17
-5.389586788e-17
-6.711888721e-17
-8.002518576e-17
-9.250487714e-17
-1.044529844e-16
-1.157704683e-16
-1.263653638e-16
-1.361539767e-16
-1.450620754e-16
-1.530260011e-16
-1.599936138e-16
-1.659250108e-16
-1.707929625e-16
-1.745830416e-16
-1.772934444e-16
-1.789345321e-16
-1.795281377e-16
-1.791067089e-16
-1.777123554e-16
-1.753958718e-16
-1.722157958e-16
-1.682375424e-16
-1.635326271e-16
-1.581779742e-16
-1.522552657e-16
-1.458502831e-16
-1.390521654e-16
-1.319525067e-16
-1.246442312e-16
-1.172201787e-16
-1.097713864e-16
-1.023850645e-16
-9.514231279e-17
-8.811566149e-17
-8.136656224e-17
-7.494297436e-17
-6.887722256e-17
-6.318430156e-17
-5.786080618e-17
-5.288462068e-17
-4.821549167e-17
-4.379652689e-17
-3.95566369e-17
-3.541382803e-17
-3.127923911e-17
-2.706170411e-17
-2.267261359e-17
-1.803078019e-17
-1.306701757e-17
-7.728130704e-18
-1.980054628e-18
4.19009656e-18
1.077320845e-17
1.773866231e-17
2.503612269e-17
3.259850059e-17
4.034589033e-17
4.819018759e-17
5.604003645e-17
6.380573547e-17
7.140371319e-17
7.876021535e-17
8.581393269e-17
9.251736494e-17
9.883685012e-17
1.047513012e-16
1.102498276e-16
1.15328514e-16
1.199867149e-16
1.2422327e-16
1.280330418e-16
1.3140414e-16
1.343161253e-16
1.367393548e-16
1.386355482e-16
1.399594944e-16
1.406617406e-16
1.406920052e-16
1.400030196e-16
1.385544873e-16
1.363168763e-16
1.332747847e-16
1.294296882e-16
1.248019199e-16
1.194317728e-16
1.133796068e-16
1.06724906e-16
9.956414953e-17
9.200742339e-17
8.417372008e-17
7.618491761e-17
6.815862808e-17
6.02002203e-17
5.239462802e-17
4.479874703e-17
3.743547271e-17
3.029055362e-17
2.331342432e-17
1.642296773e-17
9.518772089e-18
2.497769675e-18
-4.724682108e-18
-1.219112218e-17
-1.987850451e-17
-2.767850775e-17
-3.538565479e-17
-4.269730521e-17
-4.922898829e-17
-5.454733813e-17
-5.822101117e-17
-5.988757183e-17
-5.933159982e-17
-5.656646767e-17
-5.190975203e-17
-4.604046713e-17
-4.002559859e-17
-3.530414879e-17
-3.36192395e-17
-3.68929364e-17
-4.704402478e-17
-6.57559006e-17
-9.420927589e-17
-1.32801899e-16
-1.808841778e-16
-2.365444741e-16
-2.964803645e-16
-3.559918898e-16
-4.09130893e-16
-4.490380123e-16
-4.685030576e-16
-4.607823454e-16
-4.207261876e-16
-3.461014515e-16
-2.389187282e-16
-1.047727041e-16
5.190318009e-17
1.50075414e-16
1.627250267e-16
1.731045863e-16
1.829650467e-16
1.926957497e-16
2.023641601e-16
2.119444594e-16
2.213994517e-16
2.306918677e-16
2.397940705e-16
2.486856147e-16
2.573492964e-16
2.657698586e-16
2.739305145e-16
2.81813752e-16
2.894013035e-16
2.966729858e-16
3.036077587e-16
3.101834998e-16
3.163774053e-16
3.221653473e-16
3.275215222e-16
3.324198324e-16
3.36832343e-16
3.407306408e-16
3.440831235e-16
3.468584962e-16
3.490227373e-16
3.505412672e-16
3.513762117e-16
3.514893318e-16
3.508392444e-16
3.493831861e-16
3.470761414e-16
3.438699158e-16
3.397148856e-16
3.345584869e-16
3.283448278e-16
3.210157821e-16
3.125100172e-16
3.027626262e-16
2.917053708e-16
2.792662428e-16
2.65369997e-16
2.499365104e-16
2.328816259e-16
2.141172293e-16
1.935497987e-16
1.710807372e-16
1.466068924e-16
1.200187679e-16
9.12015915e-17
6.003380506e-17
2.638821692e-17
-9.8697098e-18
-4.888158167e-17
-9.079658476e-17
-1.357717087e-16
-1.839719623e-16
-2.35571074e-16
-2.907524035e-16
-3.497078733e-16
-4.126402786e-16
-4.79761979e-16
-5.512969584e-16
-6.274796017e-16
-7.085570859e-16
-7.947886285e-16
-8.864458987e-16
-9.838149286e-16
-1.087194893e-15
-1.196899923e-15
-1.313258879e-15
-1.436617395e-15
-1.567336046e-15
-1.705793887e-15
-1.852386151e-15
-2.007527295e-15
-2.171650079e-15
-2.345207343e-15
-2.528671746e-15
-2.72253687e-15
-2.927318473e-15
-3.143553001e-15
-3.371801848e-15
-3.612648268e-15
-3.866701128e-15
-4.134593466e-15
-4.416983725e-15
-4.71455747e-15
-5.028026781e-15
-5.3581312e-15
-5.705638923e-15
-6.071346657e-15
-6.456080679e-15
-6.860697696e-15
-7.286084246e-15
-7.733158756e-15
-8.202870945e-15
-8.696202897e-15
-9.214169349e-15
-9.757817473e-15
-1.032822904e-14
-1.092651807e-14
-1.155383395e-14
-1.221135988e-14
-1.290031283e-14
-1.362194539e-14
-1.437754455e-14
-1.516843181e-14
-1.599596363e-14
-1.686153108e-14
-1.776655918e-14
-1.871250783e-14
-1.970087027e-14
-2.073317371e-14
-2.181097746e-14
-2.293587504e-14
-2.410948987e-14
-2.533347766e-14
-2.660952395e-14
-2.793934401e-14
-2.932468139e-14
-3.076730678e-14
-3.226901777e-14
-3.383163545e-14
-3.545700606e-14
-3.714699647e-14
-3.890349525e-14
-4.072840885e-14
-4.262366106e-14
-4.459119111e-14
-4.663295116e-14
-4.875090538e-14
-5.094702591e-14
-5.322329179e-14
-5.558168775e-14
-5.802419942e-14
-6.055281255e-14
-6.316951071e-14
-6.587627039e-14
-6.867506084e-14
-7.156783975e-14
-7.455655195e-14
-7.764312399e-14
-8.082946428e-14
-8.41174569e-14
-8.750896154e-14
-9.100580912e-14
-9.460979797e-14
-9.832269235e-14
-1.021462177e-13
-1.060820597e-13
-1.101318588e-13
-1.142972093e-13
-1.185796547e-13
-1.229806857e-13
-1.275017377e-13
-1.321441862e-13
-1.369093462e-13
-1.417984682e-13
-1.468127357e-13
-1.519532643e-13
-1.572210961e-13
-1.62617201e-13
-1.68142474e-13
-1.737977304e-13
-1.795837081e-13
-1.855010635e-13
-1.915503714e-13
-1.977321242e-13
-2.040467284e-13
-2.104945084e-13
-2.170757031e-13
-2.237904656e-13
-2.306388652e-13
-2.376208878e-13
-2.447364346e-13
-2.519853254e-13
-2.593673004e-13
-2.66882019e-13
-2.745290655e-13
-2.823079503e-13
-2.902181124e-13
-2.982589223e-13
-3.06429689e-13
-3.147296591e-13
-3.231580268e-13
-3.317139343e-13
-3.403964806e-13
-3.492047271e-13
-3.581377012e-13
-3.671944078e-13
-3.76373832e-13
-3.856749516e-13
-3.950967432e-13
-4.046381904e-13
-4.142982953e-13
-4.240760883e-13
-4.339706378e-13
-4.439810612e-13
-4.541065392e-13
-4.643463232e-13
-4.746997572e-13
-4.851662784e-13
-4.95745443e-13
-5.064369367e-13
-5.172405872e-13
-5.281563839e-13
-5.391844955e-13
-5.503252798e-13
-5.615793141e-13
-5.729473988e-13
-5.844305904e-13
-5.960302105e-13
-6.077478712e-13
-6.195855003e-13
-6.315453538e-13
-6.436300444e-13
-6.558425621e-13
-6.681863015e-13
-6.806650837e-13
-6.932831795e-13
-7.06045339e-13
-7.189568172e-13
-7.320234005e-13
-7.45251433e-13
-7.586478505e-13
-7.722202068e-13
-7.859766983e-13
-7.999262066e-13
-8.140783243e-13
-8.284433832e-13
-8.430324969e-13
-8.578575839e-13
-8.729314131e-13
-8.882676325e-13
-9.038808083e-13
-9.197864641e-13
-9.360011143e-13
-9.525423048e-13
-9.694286563e-13
-9.866799035e-13
-1.004316933e-12
-1.02236183e-12
-1.040837926e-12
-1.059769832e-12
-1.079183492e-12
-1.099106237e-12
-1.119566811e-12
-1.140595443e-12
-1.162223891e-12
-1.184485483e-12
-1.207415181e-12
-1.231049635e-12
-1.255427237e-12
-1.280588166e-12
-1.306574462e-12
-1.333430057e-12
-1.361200815e-12
-1.389934536e-12
-1.41968042e-12
-1.450496654e-12
-1.482246471e-12
-1.515191627e-12
-1.549533892e-12
-1.585576765e-12
-1.622879434e-12
-1.661500224e-12
-1.701508186e-12
-1.742975083e-12
-1.785976288e-12
-1.830590662e-12
-1.876900797e-12
-1.924993176e-12
-1.974958378e-12
-2.026890003e-12
-2.080937712e-12
-2.138002094e-12
-2.197450286e-12
-2.259377487e-12
-2.32390269e-12
-2.390941451e-12
-2.460650122e-12
-2.533296345e-12
-2.609009662e-12
-2.687921379e-12
-2.770169391e-12
-2.855897299e-12
-2.945254368e-12
-3.038395795e-12
-3.135482962e-12
-3.236683734e-12
-3.342172895e-12
-3.452132463e-12
-3.566752204e-12
-3.686230133e-12
-3.810773038e-12
-3.940597148e-12
-4.075928874e-12
-4.217005594e-12
-4.36407666e-12
-4.517404439e-12
-4.677265656e-12
-4.843952796e-12
-5.017775889e-12
-5.199064485e-12
-5.388170019e-12
-5.585468602e-12
-5.791364238e-12
-6.006292726e-12
-6.230726151e-12
-6.465178295e-12
-6.710210961e-12
-6.966441597e-12
-7.234552181e-12
-7.515299943e-12
-7.809529997e-12
-8.118190414e-12
-8.44235023e-12
-8.783220706e-12
-9.142180919e-12
-9.520808028e-12
-9.920913533e-12
-1.034458629e-11
-1.079424412e-11
-1.127269502e-11
-1.178321042e-11
-1.232961238e-11
-1.291637776e-11
-1.354876233e-11
-1.423294886e-11
-1.497622375e-11
-1.578718758e-11
-1.667600636e-11
-1.765471093e-11
-1.87375541e-11
-1.994143631e-11
-2.1286413e-11
-2.279629969e-11
-2.449939242e-11
-2.642932705e-11
-2.862610254e-11
-3.113730021e-11
-3.401953624e-11
-3.734019136e-11
-4.117947096e-11
-4.5632858e-11
-5.081403338e-11
-5.68583525e-11
-6.392698304e-11
-7.221182971e-11
-8.194139445e-11
-9.338774875e-11
-1.068748288e-10
-1.227883033e-10
-1.415873095e-10
-1.638184119e-10
-1.901322014e-10
-2.213030331e-10
-2.582524936e-10
-3.020773044e-10
-3.540824913e-10
-4.158208194e-10
-4.891396704e-10
-5.762367727e-10
-6.797264471e-10
-8.027183678e-10
-9.489112038e-10
-1.122703954e-09
-1.329328356e-09
-1.575006367e-09
-1.867137508e-09
-2.214521808e-09
-2.627625147e-09
-3.118895273e-09
-3.703138192e-09
-4.397966857e-09
-5.224336178e-09
-6.207181563e-09
-7.376181429e-09
-8.766668629e-09
-1.042072089e-08
-1.238846682e-08
-1.472965177e-08
-1.751551811e-08
-2.083106562e-08
-2.477777354e-08
-2.947688389e-08
-3.507336859e-08
-4.174073232e-08
-4.96868384e-08
-5.916099082e-08
-7.04625621e-08
-8.395152719e-08
-1.000613543e-07
-1.193148169e-07
-1.423434287e-07
-1.699113895e-07
-2.029451428e-07
-2.425699364e-07
-2.901551169e-07
-3.473703292e-07
-4.162553229e-07
-4.993067337e-07
-5.995859969e-07
-7.208535224e-07
-8.677356989e-07
-1.04593058e-06
-1.262465342e-06
-1.52601082e-06
-1.847268821e-06
-2.23944405e-06
-2.718814129e-06
-3.305417269e-06
-4.023861335e-06
-4.904282811e-06
-5.983457473e-06
-7.306068248e-06
-8.926101922e-06
-1.090827741e-05
-1.332926877e-05
-1.627825188e-05
-1.985597962e-05
-2.417125335e-05
-2.933348859e-05
-3.544033941e-05
-4.256025919e-05
-5.071137003e-05
-5.983922971e-05
-6.979524214e-05
-8.031156224e-05
-9.095383267e-05
-0.000101006738
-0.0001092057847
-0.0001131676589
-0.0001082734971
-8.559019939e-05
-2.815575018e-05
9.523157878e-05
0.000338905235
0.0007888440286
0.001560163897
0.002763935888
0.004426744078
0.006380505913
0.008195709221
0.009256658986
0.009010072539
0.007291048944
0.004413191855
0.001104405457
-0.001771877302
-0.002430115872
-0.002180608816
-0.001824067369
-0.0004628139022
0.0021939372
0.006136061583
0.01121448925
0.01666506942
0.02096899631
0.02302312636
0.02375548057
0.02271214165
0.02636219515
0.03610629136
0.05573869718
0.08449817566
0.1311448142
0.1917701485
0.2627156667
0.3316318085
0.4043945141
0.4635051271
0.501396294
0.515307967
0.5084163551
0.4818347349
0.4419356389
0.3908229324
0.3342328809
0.2775907217
0.2229293529
0.1723388742
0.1277645851
0.09088339096
0.06218928784
0.04202008864
0.02693587893
0.01585570471
0.008017902777
0.003052095465
-0.0005962108469
-0.003093085528
-0.004684154541
-0.005968227305
-0.005729978179
-0.005269516462
-0.005010549533
-0.004539930279
-0.003987009124
-0.003429463108
-0.002908135719
-0.002441271485
-0.002029511324
-0.001679863311
-0.001383289562
-0.001134169061
-0.0009265194823
-0.000754530057
-0.0006128315307
-0.0004966150776
-0.0004016659862
-0.0003243493109
-0.0002615702459
-0.0002107182839
-0.0001696118927
-0.0001364405857
-0.0001097107203
-8.819632999e-05
-7.089555387e-05
-5.699274588e-05
-4.582598936e-05
-3.685958662e-05
-2.966099054e-05
-2.388161704e-05
-1.924099382e-05
-1.551374707e-05
-1.251896526e-05
-1.011154391e-05
-8.175167245e-06
-6.616634014e-06
-5.361281578e-06
-4.349303363e-06
-3.532790413e-06
-2.873357966e-06
-2.340243523e-06
-1.908784036e-06
-1.559197465e-06
-1.275608288e-06
-1.045268326e-06
-8.579338495e-07
-7.05367566e-07
-5.809404477e-07
-4.793132753e-07
-3.96181888e-07
-3.280732897e-07
-2.721823987e-07
-2.262412701e-07
-1.884142661e-07
-1.572139854e-07
-1.314337776e-07
-1.100935631e-07
-9.239626879e-08
-7.769279873e-08
-6.545383767e-08
-5.524712995e-08
-4.671916209e-08
-3.958037808e-08
-3.359323485e-08
-2.856254653e-08
-2.432766612e-08
-2.075615096e-08
-1.773861993e-08
-1.518458356e-08
-1.301904706e-08
-1.117974512e-08
-9.614886256e-09
-8.281316027e-09
-7.143011064e-09
-6.169843805e-09
-5.336572915e-09
-4.622015537e-09
-4.008361567e-09
-3.480610111e-09
-3.026104908e-09
-2.634149475e-09
-2.295688629e-09
-2.003045371e-09
-1.749699762e-09
-1.530105926e-09
-1.339539011e-09
-1.173968942e-09
-1.029953813e-09
-9.045471608e-10
-7.952233579e-10
-6.998174908e-10
-6.164707713e-10
-5.435834449e-10
-4.79778164e-10
-4.238679739e-10
-3.748278669e-10
-3.317716143e-10
-2.939335344e-10
-2.606491544e-10
-2.313439286e-10
-2.055185874e-10
-1.827392521e-10
-1.626284661e-10
-1.448580197e-10
-1.291419572e-10
-1.152307286e-10
-1.029069733e-10
-9.198035142e-11
-8.228410012e-11
-7.367282984e-11
-6.601863101e-11
-5.920967871e-11
-5.314766777e-11
-4.774653053e-11
-4.293042503e-11
-3.863273332e-11
-3.47942931e-11
-3.136360201e-11
-2.82950841e-11
-2.554835543e-11
-2.308739096e-11
-2.088094137e-11
-1.890164926e-11
-1.712452561e-11
-1.552765182e-11
-1.409166022e-11
-1.279926877e-11
-1.163505616e-11
-1.058595205e-11
-9.639634012e-12
-8.785415905e-12
-8.013682593e-12
-7.315970868e-12
-6.684678267e-12
-6.113022988e-12
-5.594948094e-12
-5.124861923e-12
-4.698276316e-12
-4.310755274e-12
-3.958407524e-12
-3.63782557e-12
-3.345961142e-12
-3.079996221e-12
-2.837274674e-12
-2.615810008e-12
-2.413344766e-12
-2.22812053e-12
-2.058579515e-12
-1.903420009e-12
-1.7612044e-12
-1.630751985e-12
-1.51094065e-12
-1.400826066e-12
-1.299474276e-12
-1.206137049e-12
-1.120099399e-12
-1.040868239e-12
-9.67662646e-13
-9.000093986e-13
-8.37402074e-13
-7.795164252e-13
-7.258924533e-13
-6.762142019e-13
-6.301683649e-13
-5.874542994e-13
-5.477651327e-13
-5.108753307e-13
-4.76523288e-13
-4.44534678e-13
-4.147066485e-13
-3.868256449e-13
-3.608319018e-13
-3.366634619e-13
-3.140582005e-13
-2.930025037e-13
-2.732638252e-13
-2.548353548e-13
-2.375682144e-13
-2.214161901e-13
-2.062294517e-13
-1.920353685e-13
-1.787177304e-13
-1.661797714e-13
-1.543911925e-13
-1.433740474e-13
-1.330101951e-13
-1.232501092e-13
-1.140359245e-13
-1.05458548e-13
-9.742380722e-14
-8.983104614e-14
-8.261943988e-14
-7.581789267e-14
-6.948685542e-14
-6.352707505e-14
-5.792006454e-14
-5.265581621e-14
-4.766766829e-14
-4.297264467e-14
-3.856995102e-14
-3.441035632e-14
-3.04708892e-14
-2.682917231e-14
-2.339352345e-14
-2.016006898e-14
-1.710384877e-14
-1.425642758e-14
-1.158971726e-14
-9.09651757e-15
-6.785554251e-15
-4.622263911e-15
-2.550872226e-15
-6.242133179e-16
1.175494132e-15
2.844428204e-15
4.395536238e-15
5.844530318e-15
7.232323952e-15
8.530076996e-15
9.725786735e-15
1.083614967e-14
1.189548688e-14
1.286498773e-14
1.376766853e-14
1.457345465e-14
1.530252863e-14
1.598889938e-14
1.661312107e-14
1.720959052e-14
1.775664623e-14
1.822462234e-14
1.868509341e-14
1.908636995e-14
1.941301345e-14
1.972348476e-14
2.000518627e-14
2.022006245e-14
2.04236648e-14
2.059190267e-14
2.075425711e-14
2.084332882e-14
2.093502672e-14
2.102209988e-14
2.10689889e-14
2.109485048e-14
2.111781768e-14
2.109923981e-14
2.10603021e-14
2.100034747e-14
2.089349707e-14
2.079410927e-14
2.069035939e-14
2.05917543e-14
2.047630269e-14
2.034503505e-14
2.021106231e-14
2.006166232e-14
1.992431581e-14
1.976324323e-14
1.961398649e-14
1.945404749e-14
1.925194432e-14
1.904757757e-14
1.88395932e-14
1.863049994e-14
1.842626714e-14
1.822504059e-14
1.801826305e-14
1.780401927e-14
1.759015386e-14
1.736817277e-14
1.714055403e-14
1.69157501e-14
1.669323667e-14
1.646199064e-14
1.62624405e-14
1.604506234e-14
1.582644287e-14
1.558115837e-14
1.53402874e-14
1.511156269e-14
1.487738013e-14
1.464268606e-14
1.443034145e-14
1.421380574e-14
1.401250379e-14
1.380184155e-14
1.359407408e-14
1.338480905e-14
1.316375669e-14
1.294355389e-14
1.271767603e-14
1.250195661e-14
1.228164503e-14
1.206242919e-14
1.186630153e-14
1.166993749e-14
1.146232917e-14
1.125428246e-14
1.104931514e-14
1.084039299e-14
1.063238222e-14
1.043219656e-14
1.024073765e-14
1.006285592e-14
9.880452021e-15
9.691043109e-15
9.493233832e-15
9.307829939e-15
9.1374007e-15
8.966493139e-15
8.797584522e-15
8.635364133e-15
8.467914515e-15
8.300855252e-15
8.132528554e-15
7.968450689e-15
7.819345882e-15
7.665488471e-15
7.514439125e-15
7.376942271e-15
7.2366281e-15
7.084237989e-15
6.945234442e-15
6.808534064e-15
6.669023349e-15
6.527664812e-15
6.393849084e-15
6.260480771e-15
6.139557532e-15
6.008307715e-15
5.892879131e-15
5.77216984e-15
5.661117114e-15
5.546095222e-15
5.431593121e-15
5.319181016e-15
5.205121735e-15
5.093493615e-15
4.981783241e-15
4.871799794e-15
4.765358472e-15
4.664846814e-15
4.562097956e-15
4.465228629e-15
4.370744647e-15
4.26872407e-15
4.177125445e-15
4.084683625e-15
3.993413796e-15
3.910682791e-15
3.827541308e-15
3.742613343e-15
3.656908449e-15
3.577547474e-15
3.500807946e-15
3.429628199e-15
3.361889023e-15
3.291977335e-15
3.221210174e-15
3.153888522e-15
3.088332023e-15
3.020372666e-15
2.954792933e-15
2.884010267e-15
2.821212963e-15
2.755869009e-15
2.691326796e-15
2.625419093e-15
2.560238154e-15
2.500722456e-15
2.445712344e-15
2.38918329e-15
2.332277266e-15
2.276519983e-15
2.227251281e-15
2.176736526e-15
2.125902145e-15
2.072134861e-15
2.023140517e-15
1.982886834e-15
1.940590308e-15
1.906966021e-15
1.867666033e-15
1.823586904e-15
1.773341391e-15
1.730624629e-15
1.693089505e-15
1.659325947e-15
1.620227477e-15
1.580835474e-15
1.544471021e-15
1.507969805e-15
1.473376295e-15
1.436190683e-15
1.395395902e-15
1.364965454e-15
1.335659349e-15
1.304492716e-15
1.27057077e-15
1.234367411e-15
1.199089759e-15
1.16779821e-15
1.142649312e-15
1.114464778e-15
1.091530205e-15
1.07279392e-15
1.051292408e-15
1.028636936e-15
9.997276642e-16
9.732658655e-16
9.521498513e-16
9.290576087e-16
9.095307253e-16
8.86989319e-16
8.65084068e-16
8.414762248e-16
8.186812757e-16
7.970475851e-16
7.817270326e-16
7.682350998e-16
7.529454469e-16
7.36224934e-16
7.18294193e-16
7.023505003e-16
6.866410788e-16
6.65864741e-16
6.48133681e-16
6.293351567e-16
6.120863195e-16
6.010463908e-16
5.871165526e-16
5.708638799e-16
5.55016537e-16
5.406236346e-16
5.277402106e-16
5.186838607e-16
5.054065758e-16
4.950714117e-16
4.820358727e-16
4.693019319e-16
4.567438273e-16
4.44086837e-16
4.355108925e-16
4.241364062e-16
4.150620169e-16
4.045041598e-16
3.946282873e-16
3.81617019e-16
3.734933931e-16
3.643763108e-16
3.583466115e-16
3.509161809e-16
3.44957514e-16
3.31928757e-16
3.233840169e-16
3.161958915e-16
3.101844814e-16
3.06633215e-16
3.017044245e-16
2.96344837e-16
2.90322018e-16
2.847400543e-16
2.794818711e-16
2.716874958e-16
2.615274648e-16
2.529448379e-16
2.461079428e-16
2.388751828e-16
2.314516546e-16
2.251021794e-16
2.196026001e-16
2.115394534e-16
2.052325161e-16
2.033148966e-16
2.004042786e-16
1.935996754e-16
1.871899142e-16
1.814171617e-16
1.772381758e-16
1.736738822e-16
1.714025673e-16
1.649651255e-16
1.594904711e-16
1.569671684e-16
1.533425576e-16
1.510294899e-16
1.514413637e-16
1.496060419e-16
1.47874305e-16
1.479934809e-16
1.444435725e-16
1.440672338e-16
1.426906287e-16
1.387835342e-16
1.361677728e-16
1.304617134e-16
1.252201656e-16
1.224429004e-16
1.199470911e-16
1.164030435e-16
1.116210826e-16
1.072771553e-16
8.365867495e-17
6.548382163e-17
4.702891161e-17
5.0895874e-17
4.572717289e-17
2.197630052e-17
2.568741237e-17
2.315086492e-18
-1.894600374e-18
6.948131253e-18
2.20294426e-18
3.602290731e-18
7.344666987e-18
2.370819702e-18
4.172985991e-18
-1.002651325e-18
-8.165001566e-18
-9.090923975e-18
-1.028705809e-17
-1.379882473e-17
-1.544747777e-17
-2.159973582e-17
-2.346262798e-17
-2.720860264e-17
-3.045124187e-17
-3.413828897e-17
-3.83680348e-17
-4.216598229e-17
-4.600793796e-17
-5.060137131e-17
-5.450563949e-17
-5.892194299e-17
-6.296193154e-17
-6.711710134e-17
-7.172495682e-17
-7.681763517e-17
-8.103553899e-17
-8.577287334e-17
-9.029590732e-17
-9.484761043e-17
-9.938267447e-17
-1.039513367e-16
-1.082598918e-16
-1.122650982e-16
-1.161814607e-16
-1.199834631e-16
-1.23907186e-16
-1.277918124e-16
-1.300094625e-16
-1.328020491e-16
-1.347227832e-16
-1.368823796e-16
-1.377731795e-16
-1.396009748e-16
-1.392797407e-16
-1.398866994e-16
-1.388837373e-16
-1.375932043e-16
-1.363368385e-16
-1.339836736e-16
-1.315880912e-16
-1.284740822e-16
-1.250683397e-16
-1.213432474e-16
-1.170565407e-16
-1.125123471e-16
-1.077125598e-16
-1.026668304e-16
-9.745769554e-17
-9.212206102e-17
-8.664564554e-17
-8.111711626e-17
-7.561381714e-17
-7.029531744e-17
-6.486205142e-17
-5.954913929e-17
-5.446736546e-17
-4.953517069e-17
-4.486670301e-17
-4.036342574e-17
-3.616779265e-17
-3.221264521e-17
-2.845728718e-17
-2.492138865e-17
-2.179186454e-17
-1.884805212e-17
-1.61849192e-17
-1.386317455e-17
-1.169792313e-17
-9.749042032e-18
-8.036634692e-18
-6.494424402e-18
-5.177842915e-18
-4.021582725e-18
-3.03167003e-18
-2.180645444e-18
-1.461233227e-18
-8.585140618e-19
-3.512614605e-19
6.287621494e-20
4.019377738e-19
6.726084913e-19
8.895588017e-19
1.05479005e-18
1.185097571e-18
1.277537619e-18
1.341370888e-18
1.389074082e-18
1.422090827e-18
1.43362358e-18
1.441497594e-18
1.440305118e-18
1.437229168e-18
1.427476434e-18
1.418107961e-18
1.407548015e-18
1.394814959e-18
1.382061046e-18
1.373476977e-18
1.362960239e-18
1.354518613e-18
1.345857907e-18
1.338064014e-18
1.329766243e-18
1.320735119e-18
1.312738367e-18
1.305555526e-18
1.295422186e-18
1.287663755e-18
1.273912255e-18
1.256508812e-18
1.241913036e-18
1.221995472e-18
1.205415021e-18
1.182756925e-18
1.154826173e-18
1.129575204e-18
1.100416051e-18
1.066881955e-18
1.028186947e-18
9.947838103e-19
9.602961495e-19
9.150104103e-19
8.81225365e-19
8.40499999e-19
7.940209056e-19
7.513191562e-19
6.956123928e-19
6.527150665e-19
6.042806968e-19
5.553670743e-19
5.053674311e-19
4.6522152e-19
4.09452854e-19
3.677947785e-19
3.124210455e-19
2.659978358e-19
2.308045459e-19
1.793251519e-19
1.341710792e-19
8.545634408e-20
5.076857044e-20
1.213048506e-20
-3.11267098e-20
-6.801634681e-20
-1.106383682e-19
-1.289260953e-19
-1.686095237e-19
-2.074307308e-19
-2.305883657e-19
-2.569122262e-19
-2.814773493e-19
-3.030103953e-19
-3.318130855e-19
-3.432738675e-19
-3.690152303e-19
-3.911265709e-19
-3.979087086e-19
-4.112526003e-19
-4.245165558e-19
-4.326207426e-19
-4.387117472e-19
-4.478614962e-19
-4.481826173e-19
-4.593772487e-19
-4.608930609e-19
-4.711545152e-19
-4.691401729e-19
-4.708461191e-19
-4.736218664e-19
-4.750770587e-19
-4.763547074e-19
-4.756747484e-19
-4.872746294e-19
-4.83570251e-19
-4.926076252e-19
-4.987140712e-19
-5.068837825e-19
-5.146596414e-19
-5.216631984e-19
-5.328013326e-19
-5.465985717e-19
-5.531747224e-19
-5.736380138e-19
-5.860229664e-19
-6.021282108e-19
-6.205252374e-19
-6.377206187e-19
-6.552207941e-19
-6.731391166e-19
-6.932615131e-19
-7.085510411e-19
-7.248441728e-19
-7.414013512e-19
-7.579806115e-19
-7.742814391e-19
-7.861103769e-19
-7.982482941e-19
-8.076835199e-19
-8.137647287e-19
-8.177535843e-19
-8.19140735e-19
-8.167044893e-19
-8.113522319e-19
-8.032084232e-19
-7.905317668e-19
-7.752275936e-19
-7.558794402e-19
-7.325647355e-19
-7.05398741e-19
-6.739224763e-19
-6.384709129e-19
-6.017718914e-19
-5.608330033e-19
-5.123314499e-19
-4.70345081e-19
-4.170420054e-19
-3.586365064e-19
-3.092639588e-19
-2.522236016e-19
-1.89632863e-19
-1.343581967e-19
-6.78246262e-20
-5.884064449e-21
4.956940643e-20
1.120954152e-19
1.805530926e-19
2.326551511e-19
2.977730539e-19
3.522888525e-19
)
;

boundaryField
{
    inlet
    {
        type            calculated;
        value           uniform 0;
    }
    outlet
    {
        type            calculated;
        value           uniform 3.624591797e-19;
    }
    wall
    {
        type            empty;
    }
}


// ************************************************************************* //
