/*--------------------------------*- C++ -*----------------------------------*\
  =========                 |
  \\      /  F ield         | OpenFOAM: The Open Source CFD Toolbox
   \\    /   O peration     | Website:  https://openfoam.org
    \\  /    A nd           | Version:  7
     \\/     M anipulation  |
\*---------------------------------------------------------------------------*/
FoamFile
{
    version     2.0;
    format      ascii;
    class       volScalarField;
    location    "0.000558243009";
    object      ddt0(rho,C2H5);
}
// * * * * * * * * * * * * * * * * * * * * * * * * * * * * * * * * * * * * * //

dimensions      [1 -3 -1 0 0 0 0];

internalField   nonuniform List<scalar> 
1500
(
-1.109437166e-24
-6.049597945e-25
-1.99902131e-25
-9.033424468e-26
-4.512133794e-26
-1.683260125e-26
-2.103759501e-27
2.79321809e-27
2.7412006e-27
1.045000654e-27
-8.178874927e-28
-2.490545434e-27
-3.969480451e-27
-5.312977859e-27
-6.52880141e-27
-7.590056815e-27
-8.456292082e-27
-9.092495742e-27
-9.478449907e-27
-9.609557356e-27
-9.493575946e-27
-9.146083873e-27
-8.586504887e-27
-7.835555905e-27
-6.914203485e-27
-5.843738714e-27
-4.646390321e-27
-3.345949715e-27
-1.96808365e-27
-5.402274738e-28
9.088905376e-28
2.349952619e-27
3.753817756e-27
5.092231498e-27
6.338415317e-27
7.467542399e-27
8.457150624e-27
9.287526304e-27
9.942083553e-27
1.0407743e-26
1.067529506e-26
1.073971669e-26
1.060039393e-26
1.026120309e-26
9.730423456e-27
9.020472768e-27
8.147479564e-27
7.130725985e-27
5.992002079e-27
4.754914998e-27
3.444194464e-27
2.085028718e-27
7.024566847e-28
-6.791694556e-28
-2.036645354e-27
-3.348299194e-27
-4.594304922e-27
-5.756930006e-27
-6.820723682e-27
-7.772654022e-27
-8.602199007e-27
-9.301390413e-27
-9.864809548e-27
-1.028953321e-26
-1.057502756e-26
-1.072298806e-26
-1.073712884e-26
-1.062292769e-26
-1.038733394e-26
-1.003845071e-26
-9.585206319e-27
-9.037033167e-27
-8.403570995e-27
-7.694410437e-27
-6.918888793e-27
-6.085945563e-27
-5.204043199e-27
-4.281151682e-27
-3.3247895e-27
-2.342110451e-27
-1.340022421e-27
-3.253235153e-28
6.951608195e-28
1.714454336e-27
2.725332241e-27
3.72025955e-27
4.691371329e-27
5.6304955e-27
6.529217274e-27
7.378982176e-27
8.171232563e-27
8.897570224e-27
9.549936252e-27
1.01207986e-26
1.060333855e-26
1.099162577e-26
1.1280774e-26
1.146706898e-26
1.154806351e-26
1.152263519e-26
1.139100509e-26
1.115471752e-26
1.081658323e-26
1.038059076e-26
9.851792291e-27
9.236171422e-27
8.540501452e-27
7.77220223e-27
6.939202828e-27
6.04981603e-27
5.112628259e-27
4.136406238e-27
3.130019939e-27
2.102378564e-27
1.062375924e-27
1.883992863e-29
-1.019518163e-27
-2.044159163e-27
-3.046778803e-27
-4.019379084e-27
-4.954347602e-27
-5.844542066e-27
-6.683376808e-27
-7.464906226e-27
-8.183900325e-27
-8.835908036e-27
-9.417304742e-27
-9.92532184e-27
-1.035805784e-26
-1.07144721e-26
-1.099436338e-26
-1.119833696e-26
-1.132776388e-26
-1.138473642e-26
-1.137202253e-26
-1.129302185e-26
-1.115172334e-26
-1.095266417e-26
-1.070088681e-26
-1.040189122e-26
-1.006157729e-26
-9.686172999e-27
-9.282144462e-27
-8.856084229e-27
-8.414577431e-27
-7.964046338e-27
-7.510577065e-27
-7.059734759e-27
-6.61637607e-27
-6.184469246e-27
-5.766933918e-27
-5.365512793e-27
-4.980687257e-27
-4.611646039e-27
-4.256315555e-27
-3.911454163e-27
-3.57281207e-27
-3.23534991e-27
-2.893508975e-27
-2.541517969e-27
-2.173720826e-27
-1.784905563e-27
-1.370614221e-27
-9.274136854e-28
-4.531094317e-28
5.311381761e-29
5.906336473e-28
1.157419633e-27
1.750149174e-27
2.364401522e-27
2.99491608e-27
3.635895013e-27
4.281326393e-27
4.925302803e-27
5.56230907e-27
6.187455296e-27
6.796637169e-27
7.386610457e-27
7.954975486e-27
8.500075816e-27
9.020824262e-27
9.516476288e-27
9.986376553e-27
1.042970769e-26
1.084526941e-26
1.123131335e-26
1.158545371e-26
1.190466255e-26
1.218535394e-26
1.242354739e-26
1.261509604e-26
1.275595759e-26
1.284248319e-26
1.287169977e-26
1.284156404e-26
1.275117026e-26
1.260090069e-26
1.239251296e-26
1.2129163e-26
1.181536297e-26
1.145687833e-26
1.106056099e-26
1.063411821e-26
1.0185814e-26
9.724099215e-27
9.2571756e-27
8.79250298e-27
8.336277576e-27
7.892922052e-27
7.464646681e-27
7.051154281e-27
6.649567668e-27
6.254652184e-27
5.859389183e-27
5.455918176e-27
5.036815313e-27
4.596616531e-27
4.133426883e-27
3.650394808e-27
3.1567893e-27
2.668397314e-27
2.206980975e-27
1.798596417e-27
1.470688166e-27
1.248023874e-27
1.147715592e-27
1.173768636e-27
1.311782457e-27
1.52457299e-27
1.749569161e-27
1.898828902e-27
1.862409022e-27
1.515587176e-27
7.300913555e-28
-6.109656604e-28
-2.595276638e-27
-5.262042612e-27
-8.583117283e-27
-1.244697304e-26
-1.664821262e-26
-2.088556118e-26
-2.477151022e-26
-2.785705397e-26
-2.967576434e-26
-2.981102975e-26
-2.7990211e-26
-2.419117486e-26
-1.873052441e-26
-1.21368941e-26
-4.524565087e-27
6.707342013e-28
1.736595493e-27
2.08420173e-27
2.292807079e-27
2.483026166e-27
2.674199241e-27
2.860289154e-27
3.030379516e-27
3.174566423e-27
3.286054603e-27
3.36065494e-27
3.395671765e-27
3.3890925e-27
3.338876484e-27
3.242808753e-27
3.098439844e-27
2.903010394e-27
2.653566955e-27
2.346975385e-27
1.979970606e-27
1.549115431e-27
1.050774426e-27
4.812170147e-28
-1.63505165e-28
-8.874582636e-28
-1.695038287e-27
-2.590706413e-27
-3.579225289e-27
-4.66549601e-27
-5.854771626e-27
-7.15243573e-27
-8.564219497e-27
-1.009606984e-26
-1.175422016e-26
-1.354526532e-26
-1.547603106e-26
-1.755369391e-26
-1.978581499e-26
-2.218025988e-26
-2.47452774e-26
-2.748953205e-26
-3.042208949e-26
-3.355245462e-26
-3.689053496e-26
-4.044677148e-26
-4.423207835e-26
-4.825784187e-26
-5.25360372e-26
-5.707920804e-26
-6.1900432e-26
-6.701346425e-26
-7.243266118e-26
-7.817310326e-26
-8.425051283e-26
-9.068139342e-26
-9.748301603e-26
-1.046734667e-25
-1.122716726e-25
-1.202974277e-25
-1.287714578e-25
-1.377155008e-25
-1.471522369e-25
-1.571054792e-25
-1.676000869e-25
-1.786621392e-25
-1.903188572e-25
-2.025988069e-25
-2.155318597e-25
-2.291492457e-25
-2.434837245e-25
-2.585695151e-25
-2.744424639e-25
-2.91140056e-25
-3.087016059e-25
-3.271681497e-25
-3.465827576e-25
-3.669903954e-25
-3.884382052e-25
-4.10975482e-25
-4.34653863e-25
-4.595273633e-25
-4.856525212e-25
-5.130885622e-25
-5.418973504e-25
-5.721437984e-25
-6.038957046e-25
-6.372241348e-25
-6.722034008e-25
-7.089112565e-25
-7.474291393e-25
-7.878422352e-25
-8.302396742e-25
-8.747147529e-25
-9.213650606e-25
-9.70292708e-25
-1.021604551e-24
-1.075412304e-24
-1.131832884e-24
-1.190988537e-24
-1.253007125e-24
-1.318022353e-24
-1.386173964e-24
-1.457608141e-24
-1.532477558e-24
-1.610941884e-24
-1.693167916e-24
-1.779329855e-24
-1.869609741e-24
-1.964197659e-24
-2.063292061e-24
-2.167100131e-24
-2.275838096e-24
-2.38973153e-24
-2.509015799e-24
-2.633936315e-24
-2.764748983e-24
-2.901720462e-24
-3.045128761e-24
-3.195263315e-24
-3.352425641e-24
-3.516929591e-24
-3.689101826e-24
-3.86928218e-24
-4.057824069e-24
-4.255094984e-24
-4.461476731e-24
-4.677366108e-24
-4.903175067e-24
-5.139331364e-24
-5.386278804e-24
-5.644477765e-24
-5.914405626e-24
-6.196557141e-24
-6.491444959e-24
-6.799599879e-24
-7.121571372e-24
-7.457928084e-24
-7.809258045e-24
-8.176169216e-24
-8.559289919e-24
-8.959269021e-24
-9.376776553e-24
-9.812503947e-24
-1.026716455e-23
-1.074149376e-23
-1.123624966e-23
-1.175221305e-23
-1.229018812e-23
-1.285100259e-23
-1.3435508e-23
-1.404458016e-23
-1.467911933e-23
-1.534005068e-23
-1.60283244e-23
-1.674491615e-23
-1.749082724e-23
-1.826708494e-23
-1.90747429e-23
-1.991488115e-23
-2.078860668e-23
-2.169705358e-23
-2.264138331e-23
-2.362278523e-23
-2.464247651e-23
-2.570170292e-23
-2.680173905e-23
-2.794388841e-23
-2.912948428e-23
-3.035988985e-23
-3.163649884e-23
-3.29607361e-23
-3.433405785e-23
-3.575795285e-23
-3.723394268e-23
-3.87635826e-23
-4.034846248e-23
-4.199020785e-23
-4.369048055e-23
-4.545098023e-23
-4.727344561e-23
-4.915965544e-23
-5.111143049e-23
-5.313063505e-23
-5.521917865e-23
-5.737901799e-23
-5.961215962e-23
-6.192066154e-23
-6.430663659e-23
-6.677225461e-23
-6.931974596e-23
-7.195140481e-23
-7.466959247e-23
-7.747674171e-23
-8.037536062e-23
-8.336803767e-23
-8.645744642e-23
-8.964635072e-23
-9.293761081e-23
-9.633418948e-23
-9.98391586e-23
-1.034557063e-22
-1.071871451e-22
-1.110369194e-22
-1.150086158e-22
-1.191059703e-22
-1.233328808e-22
-1.276934171e-22
-1.321918319e-22
-1.36832574e-22
-1.416203016e-22
-1.465598957e-22
-1.516564768e-22
-1.569154183e-22
-1.623423669e-22
-1.67943258e-22
-1.737243369e-22
-1.796921794e-22
-1.85853713e-22
-1.922162408e-22
-1.987874663e-22
-2.055755204e-22
-2.125889894e-22
-2.198369441e-22
-2.27328973e-22
-2.350752152e-22
-2.430863972e-22
-2.513738697e-22
-2.599496503e-22
-2.688264655e-22
-2.780177955e-22
-2.875379255e-22
-2.974019964e-22
-3.076260592e-22
-3.18227135e-22
-3.292232757e-22
-3.406336326e-22
-3.524785246e-22
-3.647795151e-22
-3.775594917e-22
-3.908427502e-22
-4.046550856e-22
-4.190238899e-22
-4.339782543e-22
-4.49549078e-22
-4.657691864e-22
-4.82673457e-22
-5.002989498e-22
-5.186850509e-22
-5.378736279e-22
-5.579091847e-22
-5.788390407e-22
-6.007135155e-22
-6.235861263e-22
-6.475138111e-22
-6.72557179e-22
-6.987807953e-22
-7.262535015e-22
-7.550487694e-22
-7.852450028e-22
-8.169256844e-22
-8.501791701e-22
-8.850982776e-22
-9.217918904e-22
-9.603309966e-22
-1.000862109e-21
-1.043558771e-21
-1.088666808e-21
-1.136072463e-21
-1.185920359e-21
-1.2383657e-21
-1.293567776e-21
-1.3516968e-21
-1.412936355e-21
-1.477485967e-21
-1.545564006e-21
-1.617405996e-21
-1.693253929e-21
-1.773387567e-21
-1.858577775e-21
-1.948674977e-21
-2.044005964e-21
-2.14494498e-21
-2.251822745e-21
-2.365048094e-21
-2.485087796e-21
-2.612402707e-21
-2.747493322e-21
-2.890899316e-21
-3.043202753e-21
-3.205033165e-21
-3.377072902e-21
-3.560062846e-21
-3.75480885e-21
-3.962189238e-21
-4.183163446e-21
-4.418782287e-21
-4.670200033e-21
-4.938688749e-21
-5.225655495e-21
-5.532663044e-21
-5.861454988e-21
-6.213986519e-21
-6.592462248e-21
-6.999383253e-21
-7.437605716e-21
-7.910414812e-21
-8.421618111e-21
-8.975664531e-21
-9.577796628e-21
-1.023424643e-20
-1.09524887e-20
-1.174156948e-20
-1.261253433e-20
-1.357898811e-20
-1.465782919e-20
-1.587021491e-20
-1.724283443e-20
-1.880959018e-20
-2.061382367e-20
-2.271126658e-20
-2.517395904e-20
-2.809545938e-20
-3.159777795e-20
-3.584061515e-20
-4.103367893e-20
-4.745312114e-20
-5.546348209e-20
-6.554700572e-20
-7.834281713e-20
-9.469930045e-20
-1.157441449e-19
-1.429780423e-19
-1.784000467e-19
-2.246753205e-19
-2.853596243e-19
-3.651997718e-19
-4.705357752e-19
-6.09839121e-19
-7.944332635e-19
-1.039458031e-18
-1.365160487e-18
-1.798622753e-18
-2.376074625e-18
-3.145988857e-18
-4.173223909e-18
-5.544568485e-18
-7.376162116e-18
-9.823426435e-18
-1.309435661e-17
-1.746730988e-17
-2.331481306e-17
-3.113542629e-17
-4.159639045e-17
-5.559070961e-17
-7.431355786e-17
-9.936455743e-17
-1.328846953e-16
-1.777396202e-16
-2.377650478e-16
-3.180953392e-16
-4.256034742e-16
-5.694902336e-16
-7.620732496e-16
-1.019843828e-15
-1.364882542e-15
-1.82675562e-15
-2.4450557e-15
-3.272806409e-15
-4.381025165e-15
-5.864839324e-15
-7.851686265e-15
-1.051231015e-14
-1.407551332e-14
-1.884795086e-14
-2.524070247e-14
-3.380495781e-14
-4.527996466e-14
-6.065749155e-14
-8.126854879e-14
-1.089001421e-13
-1.459525916e-13
-1.956517164e-13
-2.623353304e-13
-3.518405516e-13
-4.720281194e-13
-6.334932896e-13
-8.505313525e-13
-1.142451487e-12
-1.53536843e-12
-2.064651495e-12
-2.778281006e-12
-3.741462083e-12
-5.042988381e-12
-6.804053553e-12
-9.19050542e-12
-1.242996703e-11
-1.683586217e-11
-2.28412726e-11
-3.104689137e-11
-4.228928575e-11
-5.773851251e-11
-7.903849249e-11
-1.085106098e-10
-1.494528006e-10
-2.065865901e-10
-2.867388238e-10
-3.999006513e-10
-5.608896413e-10
-7.919478685e-10
-1.126713512e-09
-1.616023635e-09
-2.335803962e-09
-3.396682725e-09
-4.953769038e-09
-7.213468492e-09
-1.043314457e-08
-1.491130856e-08
-2.09740519e-08
-2.898167227e-08
-3.940467352e-08
-5.303184511e-08
-7.131382517e-08
-9.657589024e-08
-1.3107596e-07
-1.721237302e-07
-1.968007707e-07
-1.226224695e-07
2.83003134e-07
1.59602471e-06
5.125985995e-06
1.3670188e-05
3.291762335e-05
7.397475515e-05
0.0001577617512
0.0003224120026
0.0006352936024
0.001211791639
0.002243337246
0.004036848638
0.007065806566
0.01202807076
0.01989561678
0.03192624083
0.04959195208
0.07437105005
0.1073977473
0.1490597461
0.1995358994
0.2564511442
0.3310760601
0.3841285058
0.3381700614
-0.1117950982
-0.06163105708
0.183184303
1.350563143
5.105946384
15.66388508
40.78611102
85.69618616
141.4522018
192.1572136
233.6129233
271.5755302
305.5493701
335.313826
353.9993739
356.8697572
342.2146662
301.7749836
246.229891
185.6952202
137.5781831
93.84464827
61.0786696
37.35186912
20.45478285
9.292934123
1.614696966
-2.776449038
-6.199556607
-8.228782297
-9.263226945
-9.562439821
-9.351844829
-8.798532302
-8.040384844
-7.134837406
-6.082854627
-5.111033246
-4.237771995
-3.469474514
-2.813204826
-2.281343721
-1.85408698
-1.511547715
-1.22917931
-0.9689965001
-0.7603976591
-0.6039569804
-0.4763546119
-0.373659295
-0.2919240776
-0.2274115589
-0.1767998491
-0.1371446478
-0.1063317622
-0.08236865404
-0.06376383731
-0.04933823238
-0.03816486247
-0.02951784321
-0.02283043612
-0.01766118296
-0.01366686722
-0.01058110134
-0.008197365459
-0.006355786656
-0.004932726105
-0.003832650687
-0.002981799257
-0.002323255893
-0.001813124134
-0.001417560491
-0.00111047765
-0.0008717683856
-0.000685933681
-0.0005410240955
-0.0004278236428
-0.0003392209992
-0.0002697253563
-0.0002150938172
-0.000172044729
-0.0001380371739
-0.0001111013613
-8.970816045e-05
-7.266872159e-05
-5.90572192e-05
-4.815136309e-05
-3.938656202e-05
-3.232058112e-05
-2.660626588e-05
-2.19704701e-05
-1.81977578e-05
-1.511778116e-05
-1.259549135e-05
-1.052353466e-05
-8.816336063e-06
-7.405487508e-06
-6.236146167e-06
-5.264215823e-06
-4.454136319e-06
-3.777146039e-06
-3.209912969e-06
-2.733453576e-06
-2.332276817e-06
-1.993704689e-06
-1.707331481e-06
-1.464592259e-06
-1.258417591e-06
-1.082956508e-06
-9.333536089e-07
-8.055692185e-07
-6.962338859e-07
-6.025303321e-07
-5.220974055e-07
-4.529517261e-07
-3.934235859e-07
-3.421043713e-07
-2.97803321e-07
-2.595118695e-07
-2.263741701e-07
-1.97662666e-07
-1.727577953e-07
-1.511310902e-07
-1.323310708e-07
-1.159714452e-07
-1.017212162e-07
-8.929637144e-08
-7.845288731e-08
-6.898082899e-08
-6.069936489e-08
-5.345254644e-08
-4.710572958e-08
-4.154253531e-08
-3.666226406e-08
-3.237769277e-08
-2.861319526e-08
-2.53031362e-08
-2.239049711e-08
-1.982569919e-08
-1.756559306e-08
-1.557259433e-08
-1.381393407e-08
-1.226101992e-08
-1.088888265e-08
-9.675699475e-09
-8.602382275e-09
-7.652221841e-09
-6.810580139e-09
-6.064623884e-09
-5.403093651e-09
-4.816103617e-09
-4.294967735e-09
-3.832048702e-09
-3.42062664e-09
-3.054784825e-09
-2.729310166e-09
-2.439606468e-09
-2.181618775e-09
-1.951767335e-09
-1.746889906e-09
-1.564191332e-09
-1.401199422e-09
-1.255726328e-09
-1.125834708e-09
-1.009808059e-09
-9.061246952e-10
-8.134348931e-10
-7.30540823e-10
-6.563788984e-10
-5.900042518e-10
-5.305770678e-10
-4.773505432e-10
-4.29660275e-10
-3.86914899e-10
-3.485878284e-10
-3.142099578e-10
-2.833632135e-10
-2.556748533e-10
-2.308124202e-10
-2.084792778e-10
-1.884106528e-10
-1.703701297e-10
-1.541465404e-10
-1.395512044e-10
-1.264154818e-10
-1.145885964e-10
-1.039357025e-10
-9.433616587e-11
-8.568203502e-11
-7.787668134e-11
-7.083358668e-11
-6.447526608e-11
-5.873230547e-11
-5.354250485e-11
-4.88501147e-11
-4.460515394e-11
-4.076280212e-11
-3.728285638e-11
-3.41292463e-11
-3.12696018e-11
-2.867486552e-11
-2.631894729e-11
-2.417841525e-11
-2.223221897e-11
-2.046144308e-11
-1.884908508e-11
-1.737985868e-11
-1.60400156e-11
-1.481718761e-11
-1.370024462e-11
-1.267916753e-11
-1.174493384e-11
-1.088941654e-11
-1.010529255e-11
-9.385960054e-12
-8.725465622e-12
-8.118438649e-12
-7.560032065e-12
-7.045869313e-12
-6.571997113e-12
-6.134842785e-12
-5.73117631e-12
-5.358075573e-12
-5.012895923e-12
-4.693242574e-12
-4.396945721e-12
-4.122038532e-12
-3.866736497e-12
-3.629420093e-12
-3.408618327e-12
-3.202994442e-12
-3.011332634e-12
-2.832526603e-12
-2.665568816e-12
-2.509541144e-12
-2.363606027e-12
-2.22699907e-12
-2.099021976e-12
-1.979036397e-12
-1.86645855e-12
-1.760753466e-12
-1.661431117e-12
-1.568041938e-12
-1.48017329e-12
-1.397445981e-12
-1.319511208e-12
-1.246047997e-12
-1.176760527e-12
-1.111376012e-12
-1.049642734e-12
-9.913280278e-13
-9.362167357e-13
-8.841096548e-13
-8.348223322e-13
-7.881836243e-13
-7.440347342e-13
-7.022280126e-13
-6.626262115e-13
-6.25101573e-13
-5.895350404e-13
-5.558155317e-13
-5.238395372e-13
-4.93510167e-13
-4.647368448e-13
-4.374348774e-13
-4.11524902e-13
-3.869324934e-13
-3.635877836e-13
-3.414252122e-13
-3.203832317e-13
-3.00403911e-13
-2.814327107e-13
-2.634183549e-13
-2.463123548e-13
-2.300690882e-13
-2.146454309e-13
-2.000006883e-13
-1.860964341e-13
-1.728962565e-13
-1.603658305e-13
-1.484725169e-13
-1.371854582e-13
-1.264753821e-13
-1.163145873e-13
-1.066768435e-13
-9.75370886e-14
-8.887155531e-14
-8.065783258e-14
-7.287446035e-14
-6.550111597e-14
-5.851841965e-14
-5.190799127e-14
-4.565232277e-14
-3.973473924e-14
-3.413933033e-14
-2.885095856e-14
-2.385521129e-14
-1.913836022e-14
-1.468727744e-14
-1.048941135e-14
-6.532939671e-15
-2.806486963e-15
7.00820329e-16
3.999263159e-15
7.09877553e-15
1.00087859e-14
1.273827118e-14
1.529579745e-14
1.768956953e-14
1.992743237e-14
2.201688251e-14
2.396504042e-14
2.577877263e-14
2.746456446e-14
2.902865223e-14
3.047698089e-14
3.181526052e-14
3.304889551e-14
3.418308906e-14
3.522278419e-14
3.617272338e-14
3.703743703e-14
3.782123164e-14
3.852828095e-14
3.916249693e-14
3.972764895e-14
4.022735656e-14
4.066502552e-14
4.104398362e-14
4.136735155e-14
4.163811123e-14
4.185912827e-14
4.203314649e-14
4.216275456e-14
4.225048006e-14
4.22986863e-14
4.230961366e-14
4.228544323e-14
4.222825047e-14
4.214000162e-14
4.202256996e-14
4.187779027e-14
4.170732958e-14
4.151283433e-14
4.129585337e-14
4.105788148e-14
4.080031596e-14
4.052449917e-14
4.023172094e-14
3.992318063e-14
3.960004379e-14
3.926345007e-14
3.891445218e-14
3.855400028e-14
3.818309326e-14
3.780261479e-14
3.741342274e-14
3.701634393e-14
3.661211514e-14
3.62015054e-14
3.578522873e-14
3.5363922e-14
3.493822128e-14
3.450873205e-14
3.407598117e-14
3.364052385e-14
3.320286112e-14
3.276349105e-14
3.232284184e-14
3.188135513e-14
3.143941547e-14
3.099740581e-14
3.055568281e-14
3.011458393e-14
2.967444582e-14
2.923557231e-14
2.879821475e-14
2.836264574e-14
2.792909748e-14
2.749780384e-14
2.706898747e-14
2.664283911e-14
2.621954638e-14
2.579929449e-14
2.538223977e-14
2.496854624e-14
2.455834072e-14
2.41517494e-14
2.374889928e-14
2.334988494e-14
2.295480698e-14
2.256375502e-14
2.217681125e-14
2.179405105e-14
2.14155423e-14
2.104134313e-14
2.067152846e-14
2.030611466e-14
1.994512209e-14
1.958860874e-14
1.923660004e-14
1.88891253e-14
1.854621031e-14
1.820786683e-14
1.787408418e-14
1.75448663e-14
1.722022907e-14
1.690016921e-14
1.658468524e-14
1.627377468e-14
1.596740578e-14
1.566557208e-14
1.536824366e-14
1.507541208e-14
1.478705726e-14
1.450315035e-14
1.422366915e-14
1.394857378e-14
1.367784411e-14
1.341144297e-14
1.314933127e-14
1.289148488e-14
1.263786619e-14
1.238842636e-14
1.214313001e-14
1.190193333e-14
1.166479628e-14
1.143168423e-14
1.12025472e-14
1.097734551e-14
1.075603074e-14
1.053855462e-14
1.032488391e-14
1.011496258e-14
9.908755795e-15
9.70620997e-15
9.507283714e-15
9.311923123e-15
9.120090444e-15
8.9317378e-15
8.746803703e-15
8.565252135e-15
8.387034833e-15
8.212100544e-15
8.040404197e-15
7.871908273e-15
7.706553536e-15
7.544291671e-15
7.385087747e-15
7.228884598e-15
7.075649451e-15
6.925333871e-15
6.77789722e-15
6.633279641e-15
6.491441058e-15
6.352337148e-15
6.215926264e-15
6.082159175e-15
5.950993666e-15
5.822389532e-15
5.696309615e-15
5.572708088e-15
5.451545297e-15
5.332777127e-15
5.216360655e-15
5.102256904e-15
4.990426445e-15
4.880843385e-15
4.773458926e-15
4.668233017e-15
4.565119607e-15
4.464082376e-15
4.36509024e-15
4.26811498e-15
4.173116813e-15
4.080059557e-15
3.98889797e-15
3.899601834e-15
3.812146038e-15
3.726490636e-15
3.642597129e-15
3.560437889e-15
3.479985674e-15
3.401205392e-15
3.324068178e-15
3.248545532e-15
3.174603922e-15
3.102216591e-15
3.03135256e-15
2.961973597e-15
2.894065483e-15
2.827592168e-15
2.762526689e-15
2.698841623e-15
2.636515644e-15
2.575526492e-15
2.515837321e-15
2.45743075e-15
2.400281563e-15
2.344365996e-15
2.289658084e-15
2.236137818e-15
2.183789555e-15
2.132581531e-15
2.082493404e-15
2.033506401e-15
1.985597741e-15
1.938748552e-15
1.892936775e-15
1.848142667e-15
1.804349862e-15
1.761539771e-15
1.719693121e-15
1.678796555e-15
1.63883571e-15
1.599789153e-15
1.56163982e-15
1.524370899e-15
1.4879655e-15
1.452410246e-15
1.417695268e-15
1.383810072e-15
1.350731857e-15
1.318458694e-15
1.286974409e-15
1.256267531e-15
1.226329321e-15
1.197145759e-15
1.168709814e-15
1.141015502e-15
1.114056003e-15
1.087823136e-15
1.062311815e-15
1.037523081e-15
1.013453009e-15
9.901037535e-16
9.674695319e-16
9.455405163e-16
9.243032482e-16
9.0372264e-16
8.837236063e-16
8.642024365e-16
8.448987352e-16
8.255015126e-16
8.053647455e-16
7.835423717e-16
7.586118928e-16
7.286585434e-16
4.19584593e-16
4.226012434e-16
2.924459246e-16
2.013404062e-16
1.378159082e-16
9.352802328e-17
6.291617054e-17
4.192296883e-17
2.763930577e-17
1.803777059e-17
1.16650657e-17
7.426416125e-18
4.676104354e-18
2.896407271e-18
1.770746087e-18
1.057709797e-18
6.140819726e-19
3.494382169e-19
1.898306917e-19
9.76877709e-20
4.154224229e-20
1.467998552e-20
-1.954431055e-21
-3.581182621e-21
-8.000068398e-21
-6.929716693e-21
-6.096190715e-21
-5.110036586e-21
-3.882151456e-21
-2.804975512e-21
-2.001968214e-21
-1.276413515e-21
-9.870801437e-22
-4.396385438e-22
-2.122546666e-22
-2.284464794e-23
-2.368124077e-22
-1.077670596e-22
-4.987548296e-23
3.954985084e-23
4.376783531e-23
1.563187148e-22
-1.216491327e-22
-2.206759769e-22
7.867813092e-23
-1.693660111e-22
-3.605256583e-22
5.818130028e-22
-8.660150009e-22
-3.067454328e-22
4.508381277e-24
-5.923941903e-23
2.592531175e-22
-1.310448744e-22
2.736268999e-24
-3.379222639e-22
-8.581308007e-23
4.323538988e-22
3.921990839e-22
-3.506102704e-22
-6.814875164e-22
-6.291174249e-22
7.133849809e-23
-3.62950234e-22
-4.952185301e-23
-1.482215641e-22
1.203619981e-23
-2.822858702e-23
-1.317597031e-23
-6.355605884e-23
2.314328916e-23
-2.178409487e-23
8.709443522e-23
5.66577079e-23
-4.956406696e-23
-7.189344074e-23
1.574555833e-22
-1.547396368e-22
1.51660884e-22
-2.214177576e-22
1.436911966e-22
-3.177785767e-22
-9.617411877e-23
-9.927020962e-24
4.652017077e-23
-6.10908774e-23
-4.855854119e-23
-3.800244371e-23
-3.564024013e-23
-3.368680673e-23
7.444914119e-23
-6.6403382e-23
-4.901316166e-24
-4.829447559e-23
2.223798572e-24
2.589146736e-25
-1.396356257e-23
-9.897146596e-24
-8.321523032e-25
3.771906922e-24
-1.205433799e-24
2.955741438e-24
2.939291977e-24
-1.957642294e-24
-3.315575516e-24
-9.022604057e-24
-3.005225338e-24
-6.962876211e-24
8.791846537e-24
-6.133760827e-24
3.613497014e-24
3.420848121e-24
-5.196882573e-25
4.108319025e-24
-5.594207453e-24
-1.610244551e-24
3.360934021e-25
-1.078456933e-24
4.58743961e-25
-3.953041104e-25
3.028085351e-24
-7.877790359e-25
-1.314371964e-24
4.58617419e-26
-6.069163035e-24
9.039458187e-25
-1.29743393e-24
1.256428696e-24
-4.784037892e-24
-1.980916504e-24
-3.51786705e-25
2.354953538e-25
-2.528038915e-25
2.407066238e-24
-2.774446847e-24
-5.658575147e-25
-7.335743017e-24
-3.329985087e-24
5.34568302e-24
-7.262588209e-25
1.72175121e-24
1.261722263e-24
-1.166470634e-24
3.323032664e-24
4.83770678e-24
-3.899059034e-24
-5.063567428e-24
1.10843803e-23
6.928841354e-24
5.148236939e-24
5.380057307e-24
-5.124144078e-24
-1.888177244e-23
-1.027289476e-23
-6.118057267e-24
-1.674847888e-24
-4.978487581e-24
-3.217279319e-24
9.810157969e-24
2.998661472e-24
1.248342936e-23
-7.059322381e-25
1.602635613e-23
1.68785647e-23
3.228358509e-24
-9.00119815e-25
-4.535817878e-24
5.541865306e-25
1.512662203e-24
9.885396585e-24
-5.662651523e-25
1.35245189e-25
-7.08758367e-25
-2.316751076e-24
-3.01043806e-24
2.158248653e-24
7.922610065e-24
4.540081094e-24
1.090141379e-23
8.739803024e-24
5.830491939e-24
6.1609806e-24
9.859016674e-24
6.868806227e-24
1.511341674e-23
3.044665016e-24
3.590209127e-24
-4.161281714e-24
7.68770395e-24
-1.014487717e-24
6.605755604e-24
8.373406301e-24
-4.233314245e-25
8.775197848e-24
6.800973218e-24
5.988141121e-24
1.987010746e-24
3.076212936e-24
5.112371004e-24
-7.54967496e-24
-7.06190195e-24
-3.188284017e-24
1.576821955e-24
-2.113850957e-24
-2.971033695e-24
-3.050897872e-24
-2.883487804e-24
2.126063775e-24
9.814377478e-25
-2.054060111e-24
3.60118578e-24
4.494340296e-24
-1.86950614e-24
-1.921019812e-24
-1.863068898e-24
6.53273882e-24
-2.866698475e-24
1.466700708e-24
-9.441974765e-25
7.24544951e-25
9.377700177e-25
6.282486638e-26
-1.032291342e-24
-4.55808915e-25
-1.230522918e-24
-1.106181645e-25
3.791550901e-24
-7.672032917e-25
2.107965233e-24
-1.277856309e-24
-3.144610207e-24
-2.550584036e-24
2.608506518e-24
2.618856877e-24
-7.272103824e-24
2.411113387e-24
-3.057435519e-24
-8.920499086e-24
-7.81435383e-24
-7.181482669e-24
-1.283090751e-23
-9.041887457e-24
-1.22247814e-23
-9.993996485e-24
-7.691845228e-24
-1.788658055e-23
-1.667614942e-23
-5.687550022e-24
9.783307712e-26
-8.851059175e-24
)
;

boundaryField
{
    inlet
    {
        type            calculated;
        value           uniform 0;
    }
    outlet
    {
        type            calculated;
        value           uniform -8.849181574e-24;
    }
    wall
    {
        type            empty;
    }
}


// ************************************************************************* //
