/*--------------------------------*- C++ -*----------------------------------*\
  =========                 |
  \\      /  F ield         | OpenFOAM: The Open Source CFD Toolbox
   \\    /   O peration     | Website:  https://openfoam.org
    \\  /    A nd           | Version:  7
     \\/     M anipulation  |
\*---------------------------------------------------------------------------*/
FoamFile
{
    version     2.0;
    format      ascii;
    class       volScalarField;
    location    "0.000558243009";
    object      ddt0(rho,HCO);
}
// * * * * * * * * * * * * * * * * * * * * * * * * * * * * * * * * * * * * * //

dimensions      [1 -3 -1 0 0 0 0];

internalField   nonuniform List<scalar> 
1500
(
-9.50289834e-25
7.761755558e-24
1.280698096e-23
1.232941204e-23
9.28521603e-24
5.976807434e-24
3.377345907e-24
1.638474888e-24
5.662304859e-25
-9.556328923e-26
-5.423377118e-25
-8.852827767e-25
-1.17481647e-24
-1.427792301e-24
-1.646498618e-24
-1.828099107e-24
-1.968858195e-24
-2.065802241e-24
-2.117277885e-24
-2.123072917e-24
-2.084341278e-24
-2.003439656e-24
-1.88372936e-24
-1.72937027e-24
-1.545120415e-24
-1.336147131e-24
-1.107852172e-24
-8.657122847e-25
-6.151378617e-25
-3.613531872e-25
-1.093018339e-25
1.364203921e-25
3.716048406e-25
5.924443926e-25
7.955283847e-25
9.77825806e-25
1.136665218e-24
1.269719235e-24
1.374999667e-24
1.450866771e-24
1.49605332e-24
1.509701361e-24
1.491406925e-24
1.441266247e-24
1.359916555e-24
1.248564654e-24
1.108997734e-24
9.435726085e-25
7.551817061e-25
5.471962497e-25
3.233891671e-25
8.784181631e-26
-1.55160308e-25
-4.012371644e-25
-6.460235292e-25
-8.852731329e-25
-1.114953541e-24
-1.331328891e-24
-1.53102878e-24
-1.711102759e-24
-1.869060738e-24
-2.002900129e-24
-2.111120956e-24
-2.192730103e-24
-2.247235798e-24
-2.274633022e-24
-2.275380402e-24
-2.25036884e-24
-2.200882042e-24
-2.128549246e-24
-2.03529078e-24
-1.923257511e-24
-1.794765835e-24
-1.652230372e-24
-1.498096997e-24
-1.334779088e-24
-1.164599979e-24
-9.897443725e-25
-8.122208308e-25
-6.338369727e-25
-4.561878587e-25
-2.80657372e-25
-1.084312678e-25
5.948005843e-26
2.222116733e-25
3.790099962e-25
5.291974842e-25
6.72138904e-25
8.072115874e-25
9.337816874e-25
1.051187711e-24
1.158732057e-24
1.255680682e-24
1.341270439e-24
1.414723267e-24
1.475266031e-24
1.522154595e-24
1.554700552e-24
1.572299023e-24
1.574455919e-24
1.560813131e-24
1.531170311e-24
1.485502026e-24
1.423969399e-24
1.346925633e-24
1.25491515e-24
1.148666478e-24
1.029079464e-24
8.972075368e-25
7.542363216e-25
6.014598415e-25
4.40255794e-25
2.720612642e-25
9.835010019e-26
-7.938708637e-26
-2.596597487e-25
-4.409908075e-25
-6.219268943e-25
-8.010459584e-25
-9.7696304e-25
-1.148335181e-24
-1.313866367e-24
-1.472313441e-24
-1.62249349e-24
-1.763293045e-24
-1.893679057e-24
-2.012711219e-24
-2.119554991e-24
-2.213494443e-24
-2.293943935e-24
-2.360457715e-24
-2.412736624e-24
-2.45063135e-24
-2.474141963e-24
-2.483413813e-24
-2.478730167e-24
-2.46050224e-24
-2.429257445e-24
-2.385626863e-24
-2.330332754e-24
-2.264177004e-24
-2.188031024e-24
-2.102827439e-24
-2.009553478e-24
-1.909245822e-24
-1.802986143e-24
-1.691896511e-24
-1.577133682e-24
-1.459881178e-24
-1.341338239e-24
-1.222704946e-24
-1.105163087e-24
-9.898528164e-25
-8.778455939e-25
-7.701143119e-25
-6.675020685e-25
-5.706913208e-25
-4.801754692e-25
-3.962350171e-25
-3.189204123e-25
-2.480434585e-25
-1.831788211e-25
-1.236766093e-25
-6.868638773e-26
-1.719221964e-26
3.194235967e-26
7.992131561e-26
1.279575463e-25
1.772118358e-25
2.287327688e-25
2.834011913e-25
3.418827755e-25
4.045918865e-25
4.716694413e-25
5.42976607e-25
6.18105192e-25
6.964044963e-25
7.770230922e-25
8.589628706e-25
9.4114163e-25
1.022459596e-24
1.101864831e-24
1.178412351e-24
1.251312158e-24
1.319962241e-24
1.383963853e-24
1.443117987e-24
1.497403616e-24
1.546940198e-24
1.591938287e-24
1.632643435e-24
1.669279071e-24
1.701994066e-24
1.730820063e-24
1.755642448e-24
1.776187167e-24
1.792023866e-24
1.802584049e-24
1.807191603e-24
1.805102064e-24
1.795546915e-24
1.777779432e-24
1.75111968e-24
1.71499739e-24
1.66899269e-24
1.612875497e-24
1.546644524e-24
1.470566217e-24
1.385212288e-24
1.291492257e-24
1.190674724e-24
1.084388677e-24
9.745945684e-25
8.635149836e-25
7.53516896e-25
6.469420807e-25
5.458895726e-25
4.519628341e-25
3.660044692e-25
2.878509074e-25
2.161470832e-25
1.482647877e-25
8.036683877e-26
7.650866276e-27
-7.520872289e-26
-1.734239751e-25
-2.91292538e-25
-4.312933635e-25
-5.931695488e-25
-7.731141751e-25
-9.631922353e-25
-1.151135717e-24
-1.320637632e-24
-1.452240136e-24
-1.524863045e-24
-1.517952667e-24
-1.414151667e-24
-1.20230612e-24
-8.805445283e-25
-4.590968719e-25
3.752134494e-26
5.693399673e-25
1.081137992e-24
1.504275753e-24
1.760341177e-24
1.766491225e-24
1.442463716e-24
7.184717742e-25
-4.541369503e-25
-2.099316058e-24
-3.113496774e-24
-3.304896192e-24
-3.459834937e-24
-3.605419566e-24
-3.750024976e-24
-3.895592772e-24
-4.042567559e-24
-4.191114898e-24
-4.341309505e-24
-4.493181238e-24
-4.646726182e-24
-4.801922716e-24
-4.958740288e-24
-5.117147208e-24
-5.27711185e-24
-5.438603278e-24
-5.601592236e-24
-5.766049683e-24
-5.931946567e-24
-6.09925307e-24
-6.267938992e-24
-6.43797395e-24
-6.609325937e-24
-6.781962793e-24
-6.95585084e-24
-7.13095752e-24
-7.307247917e-24
-7.4846877e-24
-7.663240938e-24
-7.842872741e-24
-8.023546316e-24
-8.205225641e-24
-8.387873665e-24
-8.571453103e-24
-8.755927281e-24
-8.941258338e-24
-9.127408645e-24
-9.314341118e-24
-9.502018055e-24
-9.690402016e-24
-9.879456114e-24
-1.006914368e-23
-1.025942861e-23
-1.045027477e-23
-1.064164752e-23
-1.083351276e-23
-1.102583681e-23
-1.121858775e-23
-1.141173494e-23
-1.160524851e-23
-1.179910094e-23
-1.199326601e-23
-1.218772012e-23
-1.238244114e-23
-1.257740999e-23
-1.277261028e-23
-1.296802878e-23
-1.316365556e-23
-1.335948414e-23
-1.355551215e-23
-1.375174221e-23
-1.394818081e-23
-1.414484063e-23
-1.43417392e-23
-1.453890102e-23
-1.473635632e-23
-1.493414353e-23
-1.513230863e-23
-1.533090561e-23
-1.552999852e-23
-1.572966045e-23
-1.592997549e-23
-1.613103871e-23
-1.633295851e-23
-1.653585507e-23
-1.673986416e-23
-1.694513537e-23
-1.715183543e-23
-1.736014789e-23
-1.757027537e-23
-1.778243993e-23
-1.799688484e-23
-1.821387651e-23
-1.843370385e-23
-1.865668333e-23
-1.88831569e-23
-1.911349667e-23
-1.934810462e-23
-1.958741498e-23
-1.983189721e-23
-2.008205671e-23
-2.033843724e-23
-2.060162357e-23
-2.087224304e-23
-2.115096823e-23
-2.143851965e-23
-2.173566706e-23
-2.204323349e-23
-2.236209669e-23
-2.269319241e-23
-2.303751692e-23
-2.339612915e-23
-2.377015523e-23
-2.416078869e-23
-2.456929612e-23
-2.499701827e-23
-2.544537269e-23
-2.591585832e-23
-2.641005708e-23
-2.692963679e-23
-2.747635449e-23
-2.805205889e-23
-2.865869264e-23
-2.929829604e-23
-2.99730083e-23
-3.068507094e-23
-3.143682868e-23
-3.223073395e-23
-3.306934534e-23
-3.395533215e-23
-3.48914743e-23
-3.588066418e-23
-3.692590711e-23
-3.803032191e-23
-3.919714191e-23
-4.042971291e-23
-4.173149539e-23
-4.310606081e-23
-4.455709259e-23
-4.608838229e-23
-4.770382836e-23
-4.940743322e-23
-5.120329928e-23
-5.309562597e-23
-5.508870339e-23
-5.718690812e-23
-5.939469826e-23
-6.171660487e-23
-6.415722608e-23
-6.672121953e-23
-6.941329159e-23
-7.223819034e-23
-7.520069396e-23
-7.830560136e-23
-8.155771826e-23
-8.496184755e-23
-8.852277342e-23
-9.224525017e-23
-9.613398643e-23
-1.001936293e-22
-1.044287498e-22
-1.088438248e-22
-1.13443222e-22
-1.182311794e-22
-1.232117893e-22
-1.283889777e-22
-1.33766486e-22
-1.393478515e-22
-1.451363856e-22
-1.511351554e-22
-1.573469618e-22
-1.637743188e-22
-1.70419434e-22
-1.772841846e-22
-1.843700999e-22
-1.916783397e-22
-1.992096714e-22
-2.069644538e-22
-2.149426144e-22
-2.23143632e-22
-2.315665179e-22
-2.402097964e-22
-2.490714911e-22
-2.581491065e-22
-2.67439613e-22
-2.769394343e-22
-2.86644435e-22
-2.965499072e-22
-3.066505628e-22
-3.169405257e-22
-3.274133219e-22
-3.380618782e-22
-3.488785176e-22
-3.598549579e-22
-3.709823113e-22
-3.822510913e-22
-3.936512117e-22
-4.051719992e-22
-4.168021983e-22
-4.285299853e-22
-4.403429823e-22
-4.522282707e-22
-4.641724129e-22
-4.761614699e-22
-4.881810281e-22
-5.002162231e-22
-5.122517659e-22
-5.242719767e-22
-5.362608161e-22
-5.482019197e-22
-5.600786348e-22
-5.718740635e-22
-5.835710981e-22
-5.951524751e-22
-6.066008077e-22
-6.178986457e-22
-6.290285212e-22
-6.399729973e-22
-6.507147261e-22
-6.612365043e-22
-6.715213231e-22
-6.8155244e-22
-6.913134219e-22
-7.007882228e-22
-7.099612336e-22
-7.188173517e-22
-7.273420507e-22
-7.355214357e-22
-7.433423173e-22
-7.507922764e-22
-7.578597365e-22
-7.645340311e-22
-7.7080547e-22
-7.766654157e-22
-7.821063528e-22
-7.87121959e-22
-7.917071755e-22
-7.958582859e-22
-7.995729867e-22
-8.028504532e-22
-8.056914285e-22
-8.08098292e-22
-8.100751281e-22
-8.116278152e-22
-8.12764088e-22
-8.134936287e-22
-8.138281357e-22
-8.137814073e-22
-8.13369423e-22
-8.126104191e-22
-8.115249726e-22
-8.101360902e-22
-8.084692898e-22
-8.065526832e-22
-8.044170698e-22
-8.020960317e-22
-7.99626012e-22
-7.970464166e-22
-7.943997278e-22
-7.917315707e-22
-7.890908466e-22
-7.865298337e-22
-7.841042855e-22
-7.818735549e-22
-7.799007237e-22
-7.78252751e-22
-7.770007908e-22
-7.762216626e-22
-7.760058469e-22
-7.76502136e-22
-7.781492999e-22
-7.827386024e-22
-7.971089789e-22
-8.336484694e-22
-8.830203907e-22
-9.551891516e-22
-1.071165434e-21
-1.182059934e-21
-1.279418735e-21
-1.360834596e-21
-1.424382703e-21
-1.468442344e-21
-1.491483882e-21
-1.491955894e-21
-1.468435121e-21
-1.419787423e-21
-1.346016852e-21
-1.261615977e-21
-1.243474978e-21
-1.230239775e-21
-1.214436962e-21
-1.203298721e-21
-1.216084042e-21
-1.254976573e-21
-1.307709305e-21
-1.367855468e-21
-1.433769458e-21
-1.50529166e-21
-1.582641551e-21
-1.666135911e-21
-1.756126174e-21
-1.852986423e-21
-1.957112384e-21
-2.068923014e-21
-2.188862652e-21
-2.317403931e-21
-2.455051256e-21
-2.602345029e-21
-2.759867041e-21
-2.928247241e-21
-3.108172283e-21
-3.300396652e-21
-3.505756915e-21
-3.725190515e-21
-3.959760205e-21
-4.210686523e-21
-4.479390636e-21
-4.767551414e-21
-5.077181563e-21
-5.41072934e-21
-5.771214989e-21
-6.162413717e-21
-6.589101744e-21
-7.05738728e-21
-7.575156465e-21
-8.15267419e-21
-8.803394638e-21
-9.545054809e-21
-1.040115067e-20
-1.140293049e-20
-1.259208684e-20
-1.402439355e-20
-1.577461933e-20
-1.794316763e-20
-2.066504936e-20
-2.412200978e-20
-2.855891782e-20
-3.430591771e-20
-4.180836847e-20
-5.166730949e-20
-6.469415205e-20
-8.198459652e-20
-1.050185302e-19
-1.357950332e-19
-1.770148223e-19
-2.323267891e-19
-3.066611332e-19
-4.066794785e-19
-5.413830161e-19
-7.229341036e-19
-9.677661598e-19
-1.298082926e-18
-1.743883525e-18
-2.345697529e-18
-3.15827868e-18
-4.255592888e-18
-5.737553489e-18
-7.739115067e-18
-1.044255078e-17
-1.409402623e-17
-1.902597176e-17
-2.568727897e-17
-3.468405481e-17
-4.683461948e-17
-6.324372056e-17
-8.540266941e-17
-1.153244429e-16
-1.557259462e-16
-2.102738787e-16
-2.839163775e-16
-3.833303267e-16
-5.175246407e-16
-6.986538473e-16
-9.431152258e-16
-1.27302824e-15
-1.718229397e-15
-2.318961984e-15
-3.129502641e-15
-4.223050993e-15
-5.698322149e-15
-7.688435227e-15
-1.037289782e-14
-1.399376539e-14
-1.887743139e-14
-2.546401255e-14
-3.434698153e-14
-4.632662761e-14
-6.248218367e-14
-8.426915734e-14
-1.136507089e-13
-1.532750387e-13
-2.06714984e-13
-2.787917755e-13
-3.760127233e-13
-5.071632437e-13
-6.841081493e-13
-9.228769283e-13
-1.245134872e-12
-1.680179321e-12
-2.267652898e-12
-3.061245052e-12
-4.13380181e-12
-5.584678083e-12
-7.551615573e-12
-1.023326846e-11
-1.392884128e-11
-1.906992988e-11
-2.62044767e-11
-3.598890818e-11
-4.927320251e-11
-6.723472184e-11
-9.151061903e-11
-1.243571454e-10
-1.688844865e-10
-2.294060528e-10
-3.119411973e-10
-4.249233131e-10
-5.801931638e-10
-7.943957667e-10
-1.09096961e-09
-1.502996269e-09
-2.077316323e-09
-2.880491323e-09
-4.007482467e-09
-5.594323286e-09
-7.83669444e-09
-1.101724085e-08
-1.554591197e-08
-2.201968472e-08
-3.131128657e-08
-4.470132108e-08
-6.407557862e-08
-9.222060891e-08
-1.33268293e-07
-1.933682156e-07
-2.817119326e-07
-4.121071253e-07
-6.054201201e-07
-8.933993335e-07
-1.324696839e-06
-1.974369967e-06
-2.958847635e-06
-4.459450008e-06
-6.759405045e-06
-1.030239211e-05
-1.578520587e-05
-2.430431599e-05
-3.760271211e-05
-5.85758998e-05
-9.243942488e-05
-0.0001490711435
-0.0002468349704
-0.0004186794091
-0.0007226923319
-0.001259448945
-0.002197360505
-0.003805214949
-0.006480177046
-0.01078979537
-0.01733816628
-0.02705428799
-0.04067708241
-0.05904782573
-0.07519914343
-0.09097120607
-0.1022792927
-0.09993877869
-0.07814817834
-0.03561158697
0.03239122618
0.137690685
0.2814871315
0.4544767186
0.6902721893
0.8939375793
1.364049078
2.058627689
3.055601004
4.225359089
5.887227956
7.820658138
9.947712006
11.91236621
14.31707108
16.62851424
18.66088293
20.2705747
21.42331547
21.98363702
21.85173538
21.17324033
19.97934354
18.54614713
16.89409425
15.09942088
13.24656815
11.43484406
9.745653323
8.323162757
6.962443987
5.687981757
4.552151538
3.595943014
2.7137435
1.926526488
1.246477171
0.6063658007
0.2990692422
0.07969203201
-0.1478374379
-0.2827333041
-0.3552344369
-0.3872425296
-0.3935356671
-0.3838469618
-0.3627964217
-0.337628873
-0.309510643
-0.2804296605
-0.2517220834
-0.2242584704
-0.198574365
-0.1749641252
-0.1535505542
-0.1343372769
-0.1172487113
-0.1021576727
-0.08890852592
-0.07733234252
-0.06725759119
-0.05851736836
-0.05095400219
-0.04442175543
-0.03878812408
-0.03393418853
-0.02975432079
-0.02615548302
-0.02305628549
-0.02038593328
-0.01808313537
-0.0160950347
-0.01437619398
-0.01288765716
-0.01159609655
-0.01047304841
-0.00949423538
-0.008638971127
-0.007889641065
-0.007231252059
-0.006651043917
-0.006138155573
-0.005683339249
-0.005278716424
-0.004917569986
-0.004594167568
-0.004303611634
-0.004041712442
-0.003804880482
-0.003590035515
-0.00339452965
-0.003216082351
-0.003052725505
-0.002902757006
-0.002764701518
-0.002637277301
-0.002519368136
-0.002409999559
-0.002308318713
-0.002213577274
-0.002125116927
-0.002042357042
-0.001964784157
-0.001891943029
-0.001823428973
-0.001758881329
-0.001697977839
-0.001640429843
-0.001585978125
-0.00153438935
-0.001485452976
-0.001438978582
-0.00139479356
-0.001352741097
-0.001312678423
-0.001274475285
-0.001238012605
-0.001203181308
-0.001169881292
-0.001138020519
-0.001107514218
-0.001078284173
-0.001050258095
-0.001023369071
-0.0009975550613
-0.000972758463
-0.0009489257136
-0.0009260069379
-0.0009039556334
-0.0008827283832
-0.000862284604
-0.0008425863136
-0.0008235976367
-0.0008052857699
-0.0007876190391
-0.0007705679398
-0.0007541046879
-0.0007382031659
-0.0007228387392
-0.0007079881622
-0.0006936294702
-0.0006797419019
-0.00066630581
-0.0006533025895
-0.0006407146087
-0.000628525148
-0.0006167183372
-0.0006052791062
-0.000594193133
-0.0005834467984
-0.0005730271407
-0.0005629218217
-0.0005531190849
-0.0005436077235
-0.0005343770498
-0.0005254168636
-0.000516717426
-0.0005082694339
-0.0005000639961
-0.0004920926098
-0.0004843471427
-0.0004768198086
-0.000469503155
-0.0004623900412
-0.0004554736245
-0.0004487473453
-0.0004422049117
-0.000435840287
-0.0004296476756
-0.0004236215154
-0.0004177564618
-0.0004120473789
-0.0004064893308
-0.0004010775715
-0.0003958075352
-0.000390674829
-0.0003856752254
-0.0003808046533
-0.0003760591911
-0.0003714350627
-0.0003669286276
-0.0003625363764
-0.0003582549263
-0.0003540810128
-0.0003500114876
-0.0003460433118
-0.0003421735521
-0.0003383993752
-0.0003347180454
-0.00033112692
-0.0003276234435
-0.0003242051479
-0.0003208696456
-0.0003176146274
-0.0003144378598
-0.0003113371827
-0.0003083105037
-0.0003053557983
-0.0003024711067
-0.0002996545298
-0.000296904228
-0.0002942184202
-0.0002915953779
-0.0002890334277
-0.0002865309456
-0.0002840863576
-0.0002816981364
-0.0002793647997
-0.00027708491
-0.0002748570716
-0.0002726799296
-0.0002705521673
-0.000268472508
-0.0002664397093
-0.0002644525652
-0.0002625099037
-0.0002606105846
-0.0002587535011
-0.0002569375752
-0.0002551617596
-0.0002534250348
-0.0002517264094
-0.0002500649184
-0.0002484396222
-0.0002468496072
-0.0002452939826
-0.0002437718812
-0.0002422824591
-0.0002408248931
-0.0002393983821
-0.0002380021444
-0.0002366354189
-0.000235297463
-0.0002339875527
-0.0002327049825
-0.000231449064
-0.000230219125
-0.0002290145103
-0.0002278345807
-0.0002266787116
-0.0002255462938
-0.0002244367321
-0.0002233494457
-0.0002222838673
-0.0002212394423
-0.0002202156293
-0.0002192118992
-0.0002182277354
-0.0002172626314
-0.0002163160938
-0.0002153876395
-0.0002144767955
-0.0002135831003
-0.0002127061019
-0.000211845358
-0.0002110004359
-0.0002101709122
-0.000209356373
-0.0002085564119
-0.0002077706323
-0.0002069986453
-0.00020624007
-0.0002054945332
-0.0002047616697
-0.0002040411221
-0.0002033325387
-0.0002026355764
-0.0002019498982
-0.0002012751739
-0.0002006110795
-0.0001999572977
-0.0001993135175
-0.0001986794333
-0.000198054746
-0.0001974391611
-0.0001968323912
-0.0001962341531
-0.0001956441689
-0.0001950621669
-0.0001944878792
-0.0001939210432
-0.0001933614013
-0.0001928087006
-0.0001922626923
-0.0001917231322
-0.0001911897805
-0.0001906624015
-0.0001901407639
-0.00018962464
-0.0001891138065
-0.0001886080435
-0.000188107135
-0.0001876108687
-0.0001871190361
-0.0001866314316
-0.0001861478538
-0.0001856681036
-0.0001851919862
-0.0001847193097
-0.000184249885
-0.0001837835261
-0.0001833200508
-0.0001828592782
-0.0001824010322
-0.0001819451381
-0.0001814914243
-0.0001810397223
-0.0001805898659
-0.0001801416913
-0.0001796950376
-0.0001792497463
-0.0001788056611
-0.0001783626284
-0.0001779204969
-0.0001774791172
-0.0001770383429
-0.0001765980286
-0.0001761580326
-0.0001757182143
-0.0001752784353
-0.0001748385595
-0.0001743984529
-0.0001739579832
-0.0001735170203
-0.0001730754357
-0.000172633103
-0.0001721898979
-0.0001717456979
-0.000171300381
-0.0001708538294
-0.0001704059248
-0.000169956552
-0.0001695055969
-0.0001690529472
-0.0001685984921
-0.0001681421231
-0.0001676837323
-0.0001672232142
-0.0001667604643
-0.0001662953802
-0.0001658278607
-0.0001653578058
-0.0001648851177
-0.0001644096997
-0.0001639314564
-0.0001634502939
-0.0001629661203
-0.0001624788436
-0.0001619883749
-0.0001614946252
-0.0001609975071
-0.0001604970117
-0.000159992897
-0.0001594851572
-0.0001589737071
-0.0001584584773
-0.0001579393928
-0.0001574163873
-0.0001568893802
-0.0001563582946
-0.000155823055
-0.0001552835882
-0.0001547398222
-0.0001541916878
-0.0001536391162
-0.0001530820407
-0.0001525203956
-0.0001519541167
-0.0001513831408
-0.0001508074066
-0.0001502268536
-0.0001496414231
-0.0001490510568
-0.0001484556985
-0.0001478552932
-0.0001472497869
-0.0001466391269
-0.0001460232621
-0.0001454021422
-0.0001447757189
-0.0001441439444
-0.0001435067726
-0.0001428641589
-0.0001422160598
-0.0001415624328
-0.0001409032374
-0.0001402384337
-0.000139567984
-0.0001388918507
-0.000138209999
-0.0001375223941
-0.0001368290036
-0.0001361297958
-0.0001354247405
-0.0001347138093
-0.0001339969746
-0.0001332742103
-0.0001325454924
-0.0001318107971
-0.0001310701031
-0.0001303233899
-0.0001295706387
-0.0001288118322
-0.0001280469543
-0.0001272759904
-0.0001264989277
-0.0001257157547
-0.000124926461
-0.0001241310385
-0.0001233294796
-0.0001225217792
-0.0001217079335
-0.00012088794
-0.0001200617974
-0.0001192295069
-0.0001183910706
-0.0001175464925
-0.000116695778
-0.0001158389344
-0.0001149759701
-0.0001141068955
-0.0001132317232
-0.0001123504661
-0.0001114631401
-0.0001105697619
-0.0001096703507
-0.0001087649267
-0.0001078535116
-0.00010693613
-0.0001060128073
-0.0001050835707
-0.0001041484495
-0.0001032074746
-0.0001022606789
-0.0001013080964
-0.0001003497639
-9.938571931e-05
-9.841600252e-05
-9.744065543e-05
-9.645972174e-05
-9.54732466e-05
-9.448127773e-05
-9.348386416e-05
-9.248105699e-05
-9.147290938e-05
-9.045947576e-05
-8.944081351e-05
-8.841698098e-05
-8.738803877e-05
-8.635404974e-05
-8.5315078e-05
-8.427119034e-05
-8.322245473e-05
-8.216894193e-05
-8.111072373e-05
-8.004787473e-05
-7.89804711e-05
-7.790859096e-05
-7.683231425e-05
-7.575172323e-05
-7.46669021e-05
-7.357793655e-05
-7.248491494e-05
-7.138792729e-05
-7.028706528e-05
-6.918242267e-05
-6.807409607e-05
-6.696218266e-05
-6.584678257e-05
-6.472799729e-05
-6.360593117e-05
-6.248068906e-05
-6.135237891e-05
-6.022111049e-05
-5.908699479e-05
-5.795014557e-05
-5.68106774e-05
-5.566870821e-05
-5.452435631e-05
-5.337774272e-05
-5.222899021e-05
-5.107822312e-05
-4.992556768e-05
-4.877115181e-05
-4.761510536e-05
-4.645755999e-05
-4.529864857e-05
-4.413850618e-05
-4.297726899e-05
-4.181507536e-05
-4.065206473e-05
-3.948837834e-05
-3.832415885e-05
-3.71595502e-05
-3.599469811e-05
-3.482974895e-05
-3.366485163e-05
-3.250015481e-05
-3.133580976e-05
-3.01719674e-05
-2.900878141e-05
-2.78464053e-05
-2.668499411e-05
-2.552470407e-05
-2.436569233e-05
-2.320811668e-05
-2.20521371e-05
-2.08979138e-05
-1.974560983e-05
-1.85953889e-05
-1.74474186e-05
-1.630186844e-05
-1.515891336e-05
-1.401866385e-05
-1.288144394e-05
-1.174738201e-05
-1.061668651e-05
-9.489580438e-06
-8.366306671e-06
-7.247116476e-06
-6.132294508e-06
-5.022148494e-06
-3.917036149e-06
-2.817353477e-06
-1.723542242e-06
-6.360893508e-07
4.444707283e-07
1.517548174e-06
2.582523484e-06
3.63869024e-06
4.685381042e-06
5.721583328e-06
6.747010935e-06
7.758038593e-06
8.760433836e-06
9.735029342e-06
1.070228055e-05
1.163818107e-05
1.252546291e-05
1.335232814e-05
1.418323229e-05
2.146628563e-05
3.957500714e-05
5.414007811e-05
6.685574712e-05
7.769281073e-05
8.668664104e-05
9.389962283e-05
9.940120052e-05
0.0001032707705
0.0001055959921
0.0001064712633
0.0001059966895
0.0001042768815
0.0001014198405
9.753589023e-05
9.273666468e-05
8.713415369e-05
8.083981259e-05
7.396373533e-05
6.661388832e-05
5.889541254e-05
5.090998024e-05
4.275521624e-05
3.452417426e-05
2.630486643e-05
1.817985052e-05
1.022586135e-05
2.513499531e-06
-4.893042216e-06
-1.193619273e-05
-1.856518481e-05
-2.473617592e-05
-3.041233689e-05
-3.556388162e-05
-4.016805913e-05
-4.420908925e-05
-4.767805495e-05
-5.057273641e-05
-5.289739759e-05
-5.466251488e-05
-5.588445063e-05
-5.658506964e-05
-5.679129919e-05
-5.653463231e-05
-5.585057749e-05
-5.477805828e-05
-5.335876746e-05
-5.163648354e-05
-4.96563588e-05
-4.746418979e-05
-4.510568238e-05
-4.262572623e-05
-4.006769443e-05
-3.747278081e-05
-3.487939645e-05
-3.232263244e-05
-2.983380917e-05
-2.744011926e-05
-2.516437294e-05
-2.302485427e-05
-2.10352854e-05
-1.920490085e-05
-1.753862606e-05
-1.603734876e-05
-1.469827453e-05
-1.351535111e-05
-1.247974531e-05
-1.158035494e-05
-1.080434007e-05
-1.013765292e-05
-9.565555139e-06
-9.073103037e-06
-8.645591903e-06
-8.268947448e-06
-7.930058511e-06
-7.617045042e-06
-7.319460515e-06
-7.028428983e-06
-6.736718566e-06
-6.438757338e-06
-6.130596187e-06
-5.809826274e-06
-5.475458488e-06
-5.127773152e-06
-4.768147382e-06
-4.398868447e-06
-4.022939677e-06
-3.6438863e-06
-3.265566149e-06
-2.891991032e-06
-2.52716244e-06
-2.174925038e-06
-1.83884045e-06
-1.522082805e-06
-1.227356959e-06
-9.568395615e-07
-7.121424833e-07
-4.94297404e-07
-3.037601349e-07
-1.40432531e-07
-3.699819776e-09
1.075192915e-07
1.947124484e-07
2.597061605e-07
3.045937794e-07
3.31661546e-07
3.433152381e-07
3.420095958e-07
3.301825689e-07
3.101958792e-07
2.84283317e-07
2.545075454e-07
2.227260709e-07
1.905665105e-07
1.594110326e-07
1.303896177e-07
1.0438137e-07
8.202308556e-08
6.372401779e-08
4.968571181e-08
3.992568582e-08
3.430379021e-08
3.255010298e-08
3.429319614e-08
3.908783638e-08
4.644126959e-08
5.583733324e-08
6.675795488e-08
7.870146392e-08
9.119771825e-08
1.038198035e-07
1.161924272e-07
1.279971932e-07
1.389749747e-07
1.48925814e-07
1.57706641e-07
1.652272896e-07
1.714452119e-07
1.763593018e-07
1.800031834e-07
1.824383069e-07
1.837472083e-07
1.84027025e-07
1.833835939e-07
1.819262146e-07
1.797630898e-07
1.769976409e-07
1.737255093e-07
1.70032436e-07
1.659927606e-07
1.616686587e-07
1.571099242e-07
1.523542813e-07
1.474281496e-07
1.42347726e-07
1.371203736e-07
1.317462263e-07
1.262199022e-07
1.205322898e-07
1.146723675e-07
1.086289328e-07
1.023922384e-07
9.595549531e-08
8.931612364e-08
8.247682427e-08
7.544634501e-08
6.823998082e-08
6.087978741e-08
5.339450581e-08
4.581920928e-08
3.819469479e-08
3.056669535e-08
2.298486537e-08
1.550167806e-08
8.171229107e-09
1.048021061e-09
-5.814242422e-09
-1.236378849e-08
-1.855181618e-08
-2.433337606e-08
-2.966815772e-08
-3.452106409e-08
-3.886265728e-08
-4.266945177e-08
-4.592407377e-08
-4.861530275e-08
-5.073803781e-08
-5.229319452e-08
-5.328755734e-08
-5.373361869e-08
-5.364941603e-08
-5.305836418e-08
-5.198908003e-08
-5.047525176e-08
-4.855544081e-08
-4.627290395e-08
-4.367534478e-08
-4.081462621e-08
-3.774638333e-08
-3.452955191e-08
-3.122580037e-08
-2.789881245e-08
-2.461349599e-08
-2.143506471e-08
-1.84280241e-08
-1.565510028e-08
-1.317610018e-08
-1.10467794e-08
-9.317715681e-09
-8.033234736e-09
-7.230430366e-09
-6.938307354e-09
-7.177072274e-09
-7.957606193e-09
-9.281134734e-09
-1.11391082e-08
-1.351329645e-08
-1.637610071e-08
-1.969107116e-08
-2.341362215e-08
-2.74919095e-08
-3.186787413e-08
-3.647837859e-08
-4.125645282e-08
-4.613258807e-08
-5.103603165e-08
-5.589609753e-08
-6.064340146e-08
-6.521100801e-08
-6.953548459e-08
-7.355778471e-08
-7.722397323e-08
-8.048576945e-08
-8.330089594e-08
-8.563325277e-08
-8.745292131e-08
-8.873607242e-08
-8.946476985e-08
-8.962675784e-08
-8.921523907e-08
-8.822861386e-08
-8.667015336e-08
-8.454744734e-08
-8.187148725e-08
-7.865523651e-08
-7.491159394e-08
-7.065097128e-08
-6.587691784e-08
-6.058743987e-08
-5.473344862e-08
)
;

boundaryField
{
    inlet
    {
        type            calculated;
        value           uniform 0;
    }
    outlet
    {
        type            calculated;
        value           uniform -4.988230624e-08;
    }
    wall
    {
        type            empty;
    }
}


// ************************************************************************* //
