/*--------------------------------*- C++ -*----------------------------------*\
  =========                 |
  \\      /  F ield         | OpenFOAM: The Open Source CFD Toolbox
   \\    /   O peration     | Website:  https://openfoam.org
    \\  /    A nd           | Version:  7
     \\/     M anipulation  |
\*---------------------------------------------------------------------------*/
FoamFile
{
    version     2.0;
    format      ascii;
    class       volScalarField;
    location    "0.000558243009";
    object      ddt0(rho,N2);
}
// * * * * * * * * * * * * * * * * * * * * * * * * * * * * * * * * * * * * * //

dimensions      [1 -3 -1 0 0 0 0];

internalField   nonuniform List<scalar> 
1500
(
1881.717873
5334.5892
8139.391763
8503.154792
6774.680047
4379.089858
2391.772517
1132.411087
465.8400244
151.1559471
8.299076954
-61.85542711
-103.1041584
-132.3199249
-154.9130533
-172.3900486
-185.0538277
-192.9297462
-196.0471254
-194.5018148
-188.4663233
-178.1861812
-163.9723972
-146.192874
-125.2635147
-101.6395944
-75.80787996
-48.27982915
-19.58592325
9.729117376
39.1107309
67.99917975
95.83516439
122.066969
146.1594473
167.604915
185.9357092
200.7376984
211.6640519
218.4482104
220.9150179
218.9890457
212.6993302
202.1800126
187.6667047
169.4887381
148.0577727
123.8535058
97.40738514
69.28530708
40.07027353
10.34584487
-19.31892182
-48.38258069
-76.34218763
-102.7419215
-127.1795228
-149.3107527
-168.8521202
-185.5821254
-199.3412293
-210.0306854
-217.6103423
-222.0954198
-223.5522883
-222.0932422
-217.8703272
-211.0683336
-201.8971524
-190.5837898
-177.3643899
-162.4766735
-146.1531992
-128.6158233
-110.0716588
-90.71070886
-70.70524065
-50.21079882
-29.36864315
-8.309288485
12.84327017
33.96707205
54.93788602
75.62548014
95.89078151
115.5841572
134.5449446
152.6022637
169.5770495
185.2851621
199.5413756
212.1640052
222.9799038
231.8295568
238.5720086
243.0893627
245.2906469
245.1148503
242.533006
237.5492336
230.2007186
220.5566754
208.7163818
194.8064436
178.9774747
161.4004067
142.2626611
121.7643822
100.1149159
77.52966701
54.22741003
30.42806546
6.35090332
-17.78692201
-41.7716244
-65.39396502
-88.45048048
-110.7448722
-132.0896112
-152.3077757
-171.235081
-188.7220165
-204.6359755
-218.8632364
-231.3106555
-241.9069478
-250.6034679
-257.3744393
-262.2166375
-265.1485679
-266.2092308
-265.4565887
-262.9658651
-258.8277996
-253.146964
-246.0402176
-237.6353179
-228.0696852
-217.4892395
-206.0472251
-193.9028827
-181.2198401
-168.1640999
-154.9015141
-141.5947134
-128.3994913
-115.4607255
-102.9079836
-90.85104246
-79.37557533
-68.53932548
-58.36907784
-48.85874761
-39.96882558
-31.62740138
-23.73284135
-16.15815035
-8.756854281
-1.370212359
6.164634567
14.00597718
22.29884644
31.16683507
40.70496789
50.97409528
61.9972331
73.75809575
86.20198192
99.2389671
112.7491994
126.5899303
140.6037643
154.627498
168.5008828
182.0746204
195.2169498
207.8183418
219.7939348
231.0835886
241.6496261
251.4725854
260.5454654
268.8671062
276.4354282
283.2412488
289.2633217
294.4651305
298.7937192
302.1807035
304.5453214
305.7992355
305.8526313
304.6210804
302.0326124
298.0344892
292.599218
285.7294561
277.4615496
267.8674993
257.0551529
245.1665179
232.3739584
218.8741428
204.8796461
190.608195
176.2698933
162.0529713
148.1091544
134.5400804
121.3866492
108.6234021
96.16000585
83.85154737
71.51863982
58.97714225
46.07581823
32.73863169
19.00669559
5.073446407
-8.694127655
-21.75546883
-33.42383106
-42.9251072
-49.48877772
-52.46738568
-51.47605994
-46.5385974
-38.22217825
-27.73961356
-16.99675572
-8.564015186
-5.555092247
-11.4033885
-29.53650928
-62.96164793
-113.7881076
-182.7266017
-268.6168826
-368.0437993
-475.1057923
-581.3974338
-676.2587775
-747.3265664
-781.4029756
-765.6136126
-688.8402084
-543.2331916
-326.0410623
-40.3399131
303.6707559
504.9286857
530.4436359
555.8742608
581.2256248
606.5845352
631.9909366
657.4432216
682.9450167
708.4904006
734.072866
759.6845043
785.3154228
810.9566912
836.5972162
862.2265002
887.8348912
913.4113884
938.9453339
964.4258788
989.8426667
1015.184734
1040.439978
1065.597737
1090.646173
1115.574825
1140.369921
1165.020757
1189.51445
1213.839961
1237.983398
1261.933422
1285.676489
1309.200201
1332.491969
1355.537593
1378.324621
1400.839915
1423.069226
1444.999425
1466.617075
1487.90808
1508.858455
1529.453888
1549.681049
1569.525055
1588.971365
1608.006343
1626.615106
1644.78258
1662.494899
1679.736727
1696.493677
1712.750172
1728.492057
1743.704154
1758.371358
1772.478374
1786.009982
1798.951341
1811.287459
1823.002313
1834.08151
1844.508979
1854.27011
1863.348936
1871.731177
1879.400894
1886.342735
1892.542159
1897.983011
1902.65068
1906.529909
1909.606225
1911.863397
1913.287744
1913.862999
1913.575482
1912.409859
1910.351934
1907.386662
1903.499799
1898.677147
1892.903536
1886.166645
1878.450725
1869.743217
1860.029375
1849.295995
1837.530421
1824.718739
1810.847998
1795.905672
1779.878737
1762.754981
1744.522239
1725.167934
1704.681077
1683.049681
1660.262649
1636.308811
1611.177175
1584.858044
1557.339958
1528.614326
1498.670549
1467.499144
1435.092143
1401.440236
1366.534933
1330.368473
1292.933018
1254.221051
1214.22626
1172.941522
1130.36103
1086.478589
1041.289877
994.7881754
946.9703621
897.8318063
847.3691404
795.5788906
742.4583249
688.0054253
632.2175616
575.0947187
516.6348143
456.8385345
395.7051558
333.2359303
269.4322194
204.2955375
137.8285031
70.03306607
0.9133493671
-69.52602325
-141.2815182
-214.3472966
-288.7175695
-364.3869755
-441.347428
-519.5916936
-599.1111196
-679.8978412
-761.9413016
-845.2323303
-929.7589402
-1015.510207
-1102.474412
-1190.638154
-1279.988336
-1370.510016
-1462.189237
-1555.009737
-1648.955749
-1744.009803
-1840.154087
-1937.370832
-2035.640078
-2134.942178
-2235.256613
-2336.561469
-2438.835606
-2542.054868
-2646.195942
-2751.235314
-2857.146531
-2963.904421
-3071.481745
-3179.851187
-3288.98497
-3398.852953
-3509.426154
-3620.673903
-3732.56446
-3845.065482
-3958.144744
-4071.767774
-4185.900057
-4300.507082
-4415.551822
-4530.997646
-4646.807223
-4762.942047
-4879.362252
-4996.028812
-5112.900072
-5229.935261
-5347.091468
-5464.325755
-5581.594887
-5698.853592
-5816.0571
-5933.158783
-6050.112151
-6166.869973
-6283.383589
-6399.604171
-6515.482265
-6630.967555
-6746.008656
-6860.554325
-6974.551364
-7087.948217
-7200.689777
-7312.722148
-7423.990873
-7534.439931
-7644.013111
-7752.654447
-7860.305352
-7966.909609
-8072.407435
-8176.740961
-8279.850139
-8381.674685
-8482.155319
-8581.230748
-8678.839767
-8774.920244
-8869.410618
-8962.248616
-9053.371181
-9142.715224
-9230.217524
-9315.814508
-9399.4418
-9481.035666
-9560.532071
-9637.865527
-9712.971816
-9785.78664
-9856.244567
-9924.281345
-9989.831332
-10052.82988
-10113.21206
-10170.91296
-10225.86823
-10278.01324
-10327.28325
-10373.61431
-10416.94276
-10457.2047
-10494.33678
-10528.27679
-10558.96193
-10586.32959
-10610.31964
-10630.86997
-10647.92052
-10661.4123
-10671.28599
-10677.48311
-10679.94662
-10678.62038
-10673.44768
-10664.37482
-10651.34802
-10634.31402
-10613.2232
-10588.02349
-10558.6642
-10501.66875
-10441.80298
-10396.42652
-10394.9191
-10378.78496
-10347.79161
-10301.6893
-10240.16512
-10162.93867
-10069.71185
-9960.172484
-9834.007545
-9690.926546
-9530.548053
-9358.303837
-9248.909429
-9135.705221
-9019.100034
-8899.550181
-8760.452868
-8604.924654
-8443.969406
-8277.527312
-8105.537698
-7927.942781
-7744.688086
-7555.719144
-7360.985753
-7160.439625
-6954.032863
-6741.723298
-6523.467999
-6299.227543
-6068.966181
-5832.649036
-5590.243995
-5341.722567
-5087.057317
-4826.22493
-4559.202883
-4285.973631
-4006.519968
-3720.829109
-3428.890186
-3130.694956
-2826.238849
-2515.518772
-2198.535897
-1875.293361
-1545.797829
-1210.057709
-868.086068
-519.8974802
-165.510404
195.0537596
561.771332
934.6137126
1313.551623
1698.550808
2089.574776
2486.58271
2889.532784
3298.377566
3713.067894
4133.550394
4559.769621
4991.666092
5429.177203
5872.236918
6320.776161
6774.722921
7234.001207
7698.532663
8168.235362
8643.023966
9122.811231
9607.504307
10097.01052
10591.23192
11090.06875
11593.41858
12101.17561
12613.23207
13129.4777
13649.80002
14174.08456
14702.21482
15234.07291
15769.53968
16308.49436
16850.81602
17396.38366
17945.07574
18496.7718
19051.35223
19608.6994
20168.69689
20731.23398
21296.2014
21863.4963
22433.02108
23004.68644
23578.40982
24154.12026
24731.75831
25311.27658
25892.64476
26475.8498
27060.89838
27647.82131
28236.67438
28827.54503
29420.55141
30015.85212
30613.64558
31214.18057
31817.75655
32424.73307
33035.53651
33650.66656
34270.7032
34896.3199
35528.28703
36167.48618
36814.92101
37471.72575
38139.18119
38818.72382
39511.96172
40220.68663
40946.88474
41692.75227
42460.70594
43253.38965
44073.68503
44924.71193
45809.82781
46732.61743
47696.87736
48706.58611
49765.86455
50878.91338
52049.93701
53283.0408
54581.91615
55950.37355
57391.13213
58906.22879
60496.57848
62161.64054
63899.21634
65704.40215
67570.06067
69485.77944
71437.56185
73407.4058
75372.95143
77307.23028
79178.57034
80950.69733
82583.07601
84031.5299
85249.15901
86187.55157
86798.29115
87034.63958
86853.39198
86216.73565
85094.01021
83463.26542
81312.31257
78639.61097
75454.38918
71776.38576
67635.03843
63068.51753
58122.11271
52847.12881
47299.65575
41539.92281
35631.78528
29641.10746
23631.254
17652.50316
11429.71367
5341.649718
-2519.219091
-8948.538257
-13433.70628
-11907.1599
-19723.06231
-25603.13431
-30484.26148
-34843.89115
-38908.14185
-42667.71467
-46560.94402
-50481.83244
-54415.79292
-57561.80099
-62587.97962
-54436.70734
-59211.24782
-63571.50001
-67258.98826
-63470.60522
-66175.0898
-68559.09525
-70354.53308
-63845.75851
-64283.19804
-63881.79645
-62678.31246
-60797.35848
-58352.01862
-55415.90293
-50176.00534
-46829.77982
-43089.58357
-39938.11654
-37091.28045
-34550.29641
-32297.29731
-30263.59734
-28195.55425
-25277.01267
-22614.16495
-20132.14189
-17735.32164
-15588.23662
-13987.29159
-12924.64435
-12319.92545
-12050.71707
-10615.79749
-9356.867547
-8907.874245
-8319.871547
-7679.244038
-7048.874077
-6463.605002
-5938.085472
-5444.268614
-5028.377651
-4654.787938
-4316.895222
-4009.045673
-3726.324679
-3464.755068
-3221.1933
-2993.17902
-2778.784906
-2576.515565
-2385.117604
-2203.573624
-2031.033233
-1866.76698
-1710.150797
-1560.583354
-1417.56932
-1280.646335
-1149.381817
-1023.389502
-902.3113332
-785.817461
-673.6038004
-565.3903138
-460.9184818
-359.9496095
-262.2631241
-167.6549245
-75.93618311
13.06799911
99.51993944
183.5701128
265.3583043
345.0143643
422.659052
498.4047149
572.35586
644.609771
715.257056
784.3820829
852.0633371
918.3740176
983.3821162
1047.151034
1109.739675
1171.20279
1231.591334
1290.952565
1349.330324
1406.76528
1463.295039
1518.95449
1573.775735
1627.788549
1681.020177
1733.495794
1785.238427
1836.269291
1886.607588
1936.270989
1985.27538
2033.635288
2081.363758
2128.47246
2174.971912
2220.871394
2266.179088
2310.902211
2355.046961
2398.618621
2441.621758
2484.060003
2525.936359
2567.253121
2608.011872
2648.213773
2687.859258
2726.948359
2765.480604
2803.455095
2840.870522
2877.725169
2914.017035
2949.743753
2984.902731
3019.506939
3053.521855
3086.962748
3119.819792
3152.092457
3183.776551
3214.868216
3245.363163
3275.257259
3304.545969
3333.224837
3361.289317
3388.734826
3415.556636
3441.750131
3467.31054
3492.233117
3516.513066
3540.145738
3563.126295
3585.450024
3607.112263
3628.108272
3648.433428
3668.083155
3687.052888
3705.338104
3722.93441
3739.837342
3756.04271
3771.546187
3786.34364
3800.431002
3813.804231
3826.459427
3838.392752
3849.600578
3860.07912
3869.824883
3878.834468
3887.104521
3894.631783
3901.413164
3907.445632
3912.726225
3917.252171
3921.020848
3924.029588
3926.275953
3927.757638
3928.472328
3928.418014
3927.592624
3925.994298
3923.621255
3920.471914
3916.544727
3911.838232
3906.351256
3900.082532
3893.031044
3885.195898
3876.576306
3867.171502
3856.980995
3846.004347
3834.241147
3821.691243
3808.354585
3794.231063
3779.320973
3763.624461
3747.141967
3729.873934
3711.820977
3692.98386
3673.363367
3652.960425
3631.776081
3609.811611
3587.068132
3563.547131
3539.250061
3514.178507
3488.334237
3461.718959
3434.334669
3406.183325
3377.267114
3347.5882
3317.148928
3285.951755
3253.999112
3221.293679
3187.838202
3153.635411
3118.68828
3082.999734
3046.572932
3009.411017
2971.517279
2932.895111
2893.547923
2853.479224
2812.692716
2771.192089
2728.981081
2686.063645
2642.443699
2598.12533
2553.112621
2507.409777
2461.021131
2413.950997
2366.203836
2317.784084
2268.696466
2218.945562
2168.536102
2117.472971
2065.760967
2013.405059
1960.410296
1906.781755
1852.524601
1797.643998
1742.145345
1686.033929
1629.31516
1571.994552
1514.077667
1455.57013
1396.477501
1336.80565
1276.560315
1215.747332
1154.372634
1092.442205
1029.96207
966.9382708
903.3769816
839.2843431
774.666725
709.5303043
643.8814904
577.7267458
511.0724234
443.9251006
376.2913457
308.1777792
239.5910063
170.5377965
101.0248863
31.05909888
-39.35271479
-110.2036541
-181.4867467
-253.1950349
-325.3214422
-397.8589056
-470.8002746
-544.138413
-617.8660395
-691.9759627
-766.460792
-841.3132487
-916.525937
-992.0914316
-1068.002219
-1144.250889
-1220.829751
-1297.731346
-1374.947994
-1452.471999
-1530.295723
-1608.411401
-1686.811233
-1765.487411
-1844.432126
-1923.637446
-2003.09547
-2082.798258
-2162.737794
-2242.906104
-2323.295018
-2403.896568
-2484.702595
-2565.704922
-2646.895364
-2728.265734
-2809.807764
-2891.513219
-2973.373731
-3055.380983
-3137.526636
-3219.802348
-3302.199494
-3384.709884
-3467.324864
-3550.036037
-3632.834839
-3715.712721
-3798.661096
-3881.671422
-3964.735014
-4047.843286
-4130.987523
-4214.159095
-4297.34927
-4380.549289
-4463.750455
-4546.944005
-4630.121137
-4713.273053
-4796.391007
-4879.466017
-4962.489422
-5045.452258
-5128.345656
-5211.175449
-5293.903062
-5376.534593
-5459.061096
-5541.476706
-5623.766387
-5705.924414
-5787.941559
-5869.809049
-5951.517919
-6033.059212
-6114.423916
-6195.603171
-6276.58796
-6357.369377
-6437.93844
-6518.286215
-6598.403715
-6678.282071
-6757.912319
-6837.285595
-6916.392904
-6995.225397
-7073.774194
-7152.030442
-7229.985244
-7307.629807
-7384.955263
-7461.952897
-7538.613868
-7614.929423
-7690.890861
-7766.489488
-7841.716592
-7916.563588
-7991.021804
-8065.082739
-8138.737746
-8211.978428
-8284.796221
-8357.182779
-8429.129659
-8500.628525
-8571.671122
-8642.249166
-8712.354435
-8781.978882
-8851.114289
-8919.7527
-8987.886106
-9055.506596
-9122.606325
-9189.17749
-9255.21235
-9320.703269
-9385.64267
-9450.022993
-9513.836872
-9577.076823
-9639.735669
-9701.806226
-9763.281356
-9824.153956
-9884.417169
-9944.064129
-10003.0881
-10061.48238
-10119.2405
-10176.35591
-10232.82226
-10288.63344
-10343.78313
-10398.26546
-10452.07441
-10505.20429
-10557.64937
-10609.40405
-10660.46299
-10710.82089
-10760.47251
-10809.41285
-10857.63704
-10905.14029
-10951.91795
-10997.96557
-11043.2788
-11087.85344
-11131.68548
-11174.77105
-11217.10634
-11258.68787
-11299.51218
-11339.57602
-11378.87636
-11417.41017
-11455.17486
-11492.16775
-11528.38647
-11563.82885
-11598.49278
-11632.37648
-11665.47821
-11697.79658
-11729.33018
-11760.078
-11790.03912
-11819.21283
-11847.59858
-11875.19608
-11902.00525
-11928.02611
-11953.25904
-11977.70454
-12001.36327
-12024.23612
-12046.32438
-12067.62927
-12088.1524
-12107.89552
-12126.86074
-12145.05012
-12162.46618
-12179.11163
-12194.98925
-12210.10225
-12224.4538
-12238.04763
-12250.88738
-12262.97709
-12274.321
-12284.92354
-12294.78937
-12303.92336
-12312.33064
-12320.01659
-12326.9867
-12333.2468
-12338.80282
-12343.66104
-12347.82785
-12351.30992
-12354.11409
-12356.24741
-12357.71721
-12358.53086
-12358.69622
-12358.221
-12357.11344
-12355.38163
-12353.03419
-12350.0797
-12346.52698
-12342.3851
-12337.66326
-12332.37074
-12326.5172
-12320.11223
-12313.16589
-12305.68808
-12297.68921
-12289.17961
-12280.17002
-12270.65621
-12260.67912
-12250.23529
-12239.33638
-12227.99414
-12216.22078
-12204.02534
-12191.42639
-12178.43296
-12165.05697
-12151.3091
-12137.19875
-12122.7322
-12107.91118
-12092.73269
-12077.1801
-12061.23273
-12044.8299
-12027.94686
-12010.33535
-11992.38569
-11972.28079
-11953.40237
-11930.0443
-11905.63989
-11881.14197
-11854.38764
-11804.23907
-11050.79951
-8878.323268
-6842.414026
-4919.709771
-3121.316567
-1456.030995
70.66318132
1454.462044
2692.561853
3783.767287
4728.374496
5528.129803
6186.145214
6706.803255
7095.648808
7359.270811
7505.175658
7541.654658
7477.647738
7322.605367
7086.350583
6778.943069
6410.546735
5991.302717
5531.208767
5040.0067
4527.078718
4001.353704
3471.224068
2944.474013
2428.219363
1928.859386
1452.040707
1002.633149
584.717379
201.5839212
-144.2569676
-451.0551352
-717.7908409
-944.1365622
-1130.411028
-1277.526652
-1386.931401
-1460.546262
-1500.699452
-1510.058513
-1491.561503
-1448.348325
-1383.693352
-1300.940305
-1203.440343
-1094.494222
-977.2992307
-854.9015693
-730.1546824
-605.6838752
-483.8575749
-366.765237
-256.2020146
-153.6600024
-60.32581615
22.91579123
95.47275939
157.0315318
207.5384159
247.177158
276.3434615
295.6171322
305.7326139
307.5486269
302.0176211
290.1557092
273.0137132
251.6498757
227.1047291
200.3785324
172.4116262
144.0679115
116.1216389
89.24755207
64.01437602
40.88153699
20.1989511
2.209630037
-12.94519043
-25.21873613
-34.64957817
-41.35110671
-45.49999823
-47.32408682
-47.09002667
-45.09110707
-41.63556513
-37.03567579
-31.59787384
-25.61410584
-19.35455164
-13.06180238
-6.946544912
-1.18472168
4.083872156
8.755668617
12.76220688
16.06797773
18.66741127
20.58119564
21.85213016
22.54069569
22.7205413
22.47403984
21.88807743
21.0501913
20.04516739
18.95216375
17.84240571
16.77748115
15.80821804
14.97412521
14.30334811
13.81307767
13.51033822
13.39307469
13.4514638
13.66935726
14.02578498
14.49644808
15.0551382
15.67503995
16.329862
16.99478986
17.64723475
18.26737423
18.83849795
19.34716475
19.78320196
20.13956267
20.41207465
20.5991112
20.70121019
20.72066831
20.66113233
20.52721627
20.32414397
20.05744212
19.73268783
19.35530203
18.93040842
18.46273071
17.95654684
17.41566992
16.84346844
16.24290172
15.61657607
14.9668077
14.29568821
13.60515002
12.89703089
12.17312865
11.43525048
10.6852574
9.925098847
9.156840896
8.382691449
7.60501355
6.826338441
6.049369488
5.27697822
4.512198031
3.758205946
3.018299557
2.295863481
1.594331854
0.9171389173
0.2676673092
-0.3508120807
-0.9352005642
-1.482635434
-1.990552606
-2.456746159
-2.879420713
-3.257241057
-3.589368324
-3.875489122
-4.115833248
-4.311180469
-4.462856432
-4.572718993
-4.643135157
-4.676950168
-4.677448897
-4.648314809
-4.593581782
-4.517582551
-4.424899431
-4.320307182
-4.208718761
-4.095127923
-3.984551425
-3.881968262
-3.79225907
-3.720143966
-3.670116286
-3.646378205
-3.652775016
-3.692728606
-3.769174357
-3.884499063
-4.040485247
-4.238260612
-4.478255876
-4.760172984
-5.082962461
-5.444816699
-5.843172709
-6.274732799
-6.735497043
-7.220810411
-7.725423747
-8.243566577
-8.769031139
-9.29526458
-9.815469841
-10.32270991
-10.81001492
-11.27049023
-11.69742032
-12.08437032
-12.42527903
-12.71454278
-12.94709045
-13.11844423
-13.22476896
-13.26290689
-13.23040092
-13.12550402
-12.9471783
-12.69508582
-12.36956905
-11.97162592
-11.50287475
-10.96550769
-10.36222855
-9.696169609
-8.970780308
-8.189680321
-7.356446985
-6.47428385
-5.545063633
-4.568174794
-3.534722963
)
;

boundaryField
{
    inlet
    {
        type            calculated;
        value           uniform 374.6242083;
    }
    outlet
    {
        type            calculated;
        value           uniform -2.895949142;
    }
    wall
    {
        type            empty;
    }
}


// ************************************************************************* //
