/*--------------------------------*- C++ -*----------------------------------*\
  =========                 |
  \\      /  F ield         | OpenFOAM: The Open Source CFD Toolbox
   \\    /   O peration     | Website:  https://openfoam.org
    \\  /    A nd           | Version:  7
     \\/     M anipulation  |
\*---------------------------------------------------------------------------*/
FoamFile
{
    version     2.0;
    format      ascii;
    class       volScalarField;
    location    "0.000558243009";
    object      ddt0(rho,C7H14O);
}
// * * * * * * * * * * * * * * * * * * * * * * * * * * * * * * * * * * * * * //

dimensions      [1 -3 -1 0 0 0 0];

internalField   nonuniform List<scalar> 
1500
(
-1.713741036e-13
-5.133845986e-13
-7.684903762e-13
-7.733457047e-13
-5.887027939e-13
-3.613667271e-13
-1.861388627e-13
-8.275707019e-14
-3.261682501e-14
-1.203444742e-14
-4.924577676e-15
-3.081317019e-15
-3.012915467e-15
-3.436378142e-15
-3.923514097e-15
-4.343460417e-15
-4.657581013e-15
-4.854780599e-15
-4.933021537e-15
-4.894099507e-15
-4.742226199e-15
-4.483554086e-15
-4.125903996e-15
-3.678532289e-15
-3.151903854e-15
-2.557474379e-15
-1.907491973e-15
-1.21482604e-15
-4.928246465e-16
2.448058616e-16
9.841114878e-16
1.711008009e-15
2.41142223e-15
3.071471773e-15
3.677691192e-15
4.217306042e-15
4.678548892e-15
5.050999304e-15
5.325930238e-15
5.496634501e-15
5.558704769e-15
5.510243095e-15
5.351980099e-15
5.087291079e-15
4.722104526e-15
4.264707148e-15
3.725457212e-15
3.116424944e-15
2.450982738e-15
1.743369786e-15
1.008255674e-15
2.60324073e-16
-4.861063e-16
-1.217411491e-15
-1.920936321e-15
-2.585211336e-15
-3.200114807e-15
-3.75698493e-15
-4.248688447e-15
-4.669651953e-15
-5.015861079e-15
-5.284831165e-15
-5.475551904e-15
-5.588406259e-15
-5.625064253e-15
-5.588351462e-15
-5.482093696e-15
-5.310940662e-15
-5.080173699e-15
-4.795504766e-15
-4.462875765e-15
-4.088268275e-15
-3.677533981e-15
-3.236255266e-15
-2.76964355e-15
-2.282479729e-15
-1.779098416e-15
-1.263413456e-15
-7.389792643e-16
-2.090798648e-16
3.231647468e-16
8.546857858e-16
1.382357306e-15
1.902902398e-15
2.412821679e-15
2.90835006e-15
3.385444919e-15
3.839806541e-15
4.266929258e-15
4.662179709e-15
5.020897207e-15
5.338510154e-15
5.610661808e-15
5.833338422e-15
6.002993252e-15
6.116659751e-15
6.172048876e-15
6.167625448e-15
6.102660605e-15
5.977257995e-15
5.792353298e-15
5.549688084e-15
5.251760415e-15
4.901755965e-15
4.503464502e-15
4.06118705e-15
3.579639536e-15
3.063858032e-15
2.519110135e-15
1.9508159e-15
1.364480178e-15
7.656366378e-16
1.598026108e-16
-4.475578399e-16
-1.051065383e-15
-1.645455107e-15
-2.225607441e-15
-2.786583071e-15
-3.323663364e-15
-3.832396577e-15
-4.308648956e-15
-4.74865848e-15
-5.149088473e-15
-5.507077457e-15
-5.820281733e-15
-6.086907608e-15
-6.305731061e-15
-6.47610351e-15
-6.597943799e-15
-6.671717575e-15
-6.698406173e-15
-6.679468053e-15
-6.616796006e-15
-6.512673229e-15
-6.369730989e-15
-6.190909713e-15
-5.979424062e-15
-5.73873183e-15
-5.472504691e-15
-5.184598599e-15
-4.879020395e-15
-4.559887318e-15
-4.231376359e-15
-3.897660706e-15
-3.562832511e-15
-3.230811883e-15
-2.905244246e-15
-2.589389823e-15
-2.286010826e-15
-1.997262987e-15
-1.724599252e-15
-1.468693588e-15
-1.229392899e-15
-1.005703023e-15
-7.95814554e-16
-5.971701683e-16
-4.06574382e-16
-2.203415987e-16
-3.447753852e-17
1.551156825e-16
3.524210026e-16
5.610877223e-16
7.842257006e-16
1.024225972e-15
1.282619669e-15
1.559985913e-15
1.855914923e-15
2.1690303e-15
2.49706935e-15
2.837016324e-15
3.185279369e-15
3.537898071e-15
3.890765862e-15
4.23985055e-15
4.58139546e-15
4.912085197e-15
5.229163764e-15
5.530495865e-15
5.814568232e-15
6.080432832e-15
6.327599962e-15
6.55589346e-15
6.765284129e-15
6.955719659e-15
7.126968979e-15
7.278497494e-15
7.409386378e-15
7.518303133e-15
7.603527061e-15
7.663026016e-15
7.694577234e-15
7.69592079e-15
7.664932278e-15
7.599800764e-15
7.499199248e-15
7.362435939e-15
7.189577712e-15
6.981539113e-15
6.740131836e-15
6.468069563e-15
6.168925518e-15
5.847036758e-15
5.507351886e-15
5.155219758e-15
4.796118851e-15
4.435335835e-15
4.077607e-15
3.726750085e-15
3.385322525e-15
3.054353448e-15
2.733202244e-15
2.419595949e-15
2.109888228e-15
1.799565315e-15
1.483993822e-15
1.159368305e-15
8.237755404e-16
4.782500082e-16
1.276590019e-16
-2.187632586e-16
-5.474151519e-16
-8.410166524e-16
-1.080089529e-15
-1.245245825e-15
-1.320194116e-15
-1.295250192e-15
-1.171012839e-15
-9.617535549e-16
-6.979893092e-16
-4.276755159e-16
-2.154893247e-16
-1.397782384e-16
-2.869341426e-16
-7.432030851e-16
-1.584252638e-15
-2.863157485e-15
-4.597800754e-15
-6.758988149e-15
-9.260787225e-15
-1.195470293e-14
-1.462924243e-14
-1.70162114e-14
-1.880468989e-14
-1.96633475e-14
-1.927129924e-14
-1.735972057e-14
-1.376470646e-14
-8.501873006e-15
-1.803001779e-15
5.998655014e-15
1.086057266e-14
1.144692784e-14
1.200273057e-14
1.255213044e-14
1.309994752e-14
1.364644637e-14
1.419056508e-14
1.473173203e-14
1.526945828e-14
1.580338935e-14
1.633316285e-14
1.685834449e-14
1.737849478e-14
1.78930967e-14
1.840163166e-14
1.890358906e-14
1.939841172e-14
1.988553801e-14
2.036438762e-14
2.083437797e-14
2.129489578e-14
2.174528275e-14
2.218489985e-14
2.26130602e-14
2.302909261e-14
2.343222231e-14
2.382173054e-14
2.419682114e-14
2.455672077e-14
2.490055925e-14
2.522750427e-14
2.553664018e-14
2.582705081e-14
2.609778415e-14
2.63478148e-14
2.657612675e-14
2.678164998e-14
2.696324771e-14
2.711977032e-14
2.725001679e-14
2.735272349e-14
2.742658061e-14
2.747021815e-14
2.748223586e-14
2.746113575e-14
2.740536632e-14
2.731333267e-14
2.718333819e-14
2.701360649e-14
2.680231187e-14
2.65475065e-14
2.624717577e-14
2.589917825e-14
2.550130503e-14
2.505121087e-14
2.454643436e-14
2.398438296e-14
2.336233081e-14
2.267741677e-14
2.192662078e-14
2.110673035e-14
2.021439573e-14
1.924603326e-14
1.819789051e-14
1.706596003e-14
1.584603951e-14
1.453362963e-14
1.312397153e-14
1.161203164e-14
9.992418081e-15
8.259436165e-15
6.40700695e-15
4.42867519e-15
2.317514625e-15
6.620421041e-17
-2.333137224e-15
-4.888858079e-15
-7.609922183e-15
-1.050588233e-14
-1.358697778e-14
-1.68641434e-14
-2.03490834e-14
-2.405435565e-14
-2.799333761e-14
-3.218045262e-14
-3.663107406e-14
-4.136173844e-14
-4.639013305e-14
-5.173520841e-14
-5.741731763e-14
-6.345825919e-14
-6.988139601e-14
-7.671179118e-14
-8.397629331e-14
-9.170368202e-14
-9.992481279e-14
-1.086727066e-13
-1.179827645e-13
-1.278928756e-13
-1.384436061e-13
-1.496783659e-13
-1.616435608e-13
-1.743888606e-13
-1.879672787e-13
-2.024355032e-13
-2.178540329e-13
-2.342873896e-13
-2.518044243e-13
-2.704785013e-13
-2.903877482e-13
-3.11615333e-13
-3.34249715e-13
-3.583848923e-13
-3.841207287e-13
-4.115631794e-13
-4.408246209e-13
-4.720240807e-13
-5.052876416e-13
-5.40748579e-13
-5.785477888e-13
-6.188340097e-13
-6.617641508e-13
-7.07503559e-13
-7.56226303e-13
-8.081154865e-13
-8.633634311e-13
-9.22172059e-13
-9.847530111e-13
-1.051327989e-12
-1.122128881e-12
-1.197398005e-12
-1.277388284e-12
-1.362363372e-12
-1.45259782e-12
-1.548377103e-12
-1.649997718e-12
-1.757767267e-12
-1.872004349e-12
-1.993038577e-12
-2.121210507e-12
-2.256871407e-12
-2.400383176e-12
-2.552118056e-12
-2.712458405e-12
-2.881796259e-12
-3.060533062e-12
-3.249079085e-12
-3.44785303e-12
-3.657281407e-12
-3.877797863e-12
-4.109842547e-12
-4.353861283e-12
-4.610304826e-12
-4.879627865e-12
-5.162288161e-12
-5.458745451e-12
-5.769460406e-12
-6.094893505e-12
-6.435503758e-12
-6.791747519e-12
-7.164077145e-12
-7.552939599e-12
-7.958775123e-12
-8.382015629e-12
-8.823083365e-12
-9.282389328e-12
-9.760331606e-12
-1.025729396e-11
-1.077364408e-11
-1.130973208e-11
-1.186588884e-11
-1.244242432e-11
-1.303962611e-11
-1.365775774e-11
-1.429705713e-11
-1.495773506e-11
-1.56399738e-11
-1.634392548e-11
-1.706971088e-11
-1.781741809e-11
-1.858710117e-11
-1.937877917e-11
-2.019243495e-11
-2.102801426e-11
-2.188542483e-11
-2.276453581e-11
-2.366517685e-11
-2.458713793e-11
-2.553016873e-11
-2.649397857e-11
-2.747823628e-11
-2.848257023e-11
-2.950656859e-11
-3.054977965e-11
-3.161171243e-11
-3.269183733e-11
-3.378958686e-11
-3.490435683e-11
-3.603550741e-11
-3.718236447e-11
-3.834422102e-11
-3.952033898e-11
-4.070995071e-11
-4.191226146e-11
-4.312645069e-11
-4.435167504e-11
-4.558707036e-11
-4.683175415e-11
-4.808482832e-11
-4.934538206e-11
-5.061249427e-11
-5.188523727e-11
-5.316267898e-11
-5.444388703e-11
-5.572793131e-11
-5.701388765e-11
-5.830084161e-11
-5.958789136e-11
-6.087415175e-11
-6.21587578e-11
-6.344086868e-11
-6.471967146e-11
-6.599438478e-11
-6.726426315e-11
-6.85286009e-11
-6.978673624e-11
-7.103805534e-11
-7.228199694e-11
-7.351805656e-11
-7.474579048e-11
-7.596482113e-11
-7.717484135e-11
-7.837561884e-11
-7.956700175e-11
-8.074892294e-11
-8.192140595e-11
-8.308456987e-11
-8.423863513e-11
-8.538392938e-11
-8.652089316e-11
-8.765008621e-11
-8.87721943e-11
-8.988803577e-11
-9.099856842e-11
-9.210489714e-11
-9.320828196e-11
-9.431014527e-11
-9.54120807e-11
-9.651586291e-11
-9.762345485e-11
-9.873701924e-11
-9.98589283e-11
-1.009917736e-10
-1.021383777e-10
-1.033018058e-10
-1.044853779e-10
-1.056926802e-10
-1.0692758e-10
-1.081942375e-10
-1.094971185e-10
-1.108410082e-10
-1.122309953e-10
-1.136727602e-10
-1.151577266e-10
-1.167080022e-10
-1.183410077e-10
-1.200821829e-10
-1.219002862e-10
-1.238029893e-10
-1.257987288e-10
-1.278963996e-10
-1.301054522e-10
-1.324358956e-10
-1.348983184e-10
-1.375039195e-10
-1.402645261e-10
-1.431925588e-10
-1.463053046e-10
-1.496757645e-10
-1.532632902e-10
-1.570826056e-10
-1.611497857e-10
-1.654667507e-10
-1.700536951e-10
-1.74938773e-10
-1.80140623e-10
-1.856786787e-10
-1.915732485e-10
-1.978454846e-10
-2.045173922e-10
-2.116118502e-10
-2.191526286e-10
-2.27164406e-10
-2.356727934e-10
-2.44704347e-10
-2.542865917e-10
-2.64448042e-10
-2.752182197e-10
-2.866276794e-10
-2.98708034e-10
-3.11491978e-10
-3.250133211e-10
-3.393070154e-10
-3.544091968e-10
-3.703572183e-10
-3.871896991e-10
-4.049465702e-10
-4.236691296e-10
-4.434001049e-10
-4.641837178e-10
-4.860657633e-10
-5.090936908e-10
-5.333166988e-10
-5.587858358e-10
-5.855541191e-10
-6.136766547e-10
-6.432107807e-10
-6.742162162e-10
-7.067552274e-10
-7.408928134e-10
-7.766968957e-10
-8.142385413e-10
-8.535921899e-10
-8.94835911e-10
-9.380516668e-10
-9.833256167e-10
-1.030748424e-09
-1.0804156e-09
-1.132427863e-09
-1.186891541e-09
-1.243918983e-09
-1.303629028e-09
-1.366147493e-09
-1.431607721e-09
-1.500151181e-09
-1.571928134e-09
-1.647098395e-09
-1.725832199e-09
-1.808311226e-09
-1.894729834e-09
-1.985296531e-09
-2.080235869e-09
-2.179790796e-09
-2.284225738e-09
-2.393830628e-09
-2.508926265e-09
-2.629871512e-09
-2.757073038e-09
-2.890998576e-09
-3.032195062e-09
-3.181313522e-09
-3.339143316e-09
-3.506659332e-09
-3.685087097e-09
-3.875992719e-09
-4.08140717e-09
-4.303998084e-09
-4.547307297e-09
-4.816079307e-09
-5.116715455e-09
-5.457901853e-09
-5.851477608e-09
-6.313634865e-09
-6.866577459e-09
-7.540812843e-09
-8.378318609e-09
-9.436916212e-09
-1.079631099e-08
-1.256643132e-08
-1.489893904e-08
-1.800311348e-08
-2.216776487e-08
-2.779145733e-08
-3.542418082e-08
-4.582479084e-08
-6.004015775e-08
-7.951419274e-08
-1.062379761e-07
-1.429564024e-07
-1.934525077e-07
-2.629385068e-07
-3.585933473e-07
-4.903013071e-07
-6.716662854e-07
-9.21403885e-07
-1.265250812e-06
-1.73858204e-06
-2.389995432e-06
-3.286217469e-06
-4.51881098e-06
-6.21333788e-06
-8.541861924e-06
-1.173998879e-05
-1.613005965e-05
-2.21526745e-05
-3.040946769e-05
-4.172104852e-05
-5.720532616e-05
-7.838315617e-05
-0.0001073204847
-0.00014681907
-0.0002006715873
-0.0002740016666
-0.0003737153688
-0.0005090979936
-0.0006925990993
-0.0009408593276
-0.001276045302
-0.001727570994
-0.002334303454
-0.003147357246
-0.004233600959
-0.005680001052
-0.00759892376
-0.01013450482
-0.01347012458
-0.01783698857
-0.02352365006
-0.03088615338
-0.04035822429
-0.05246062037
-0.06780837048
-0.08711419386
-0.1111859186
-0.1409152553
-0.1772548808
-0.2211805227
-0.2736346449
-0.335448634
-0.4072408675
-0.4892891505
-0.5813774595
-0.6826188574
-0.7912595342
-0.9044701852
-1.018135856
-1.12665414
-1.222744574
-1.297285456
-1.339125048
-1.334892895
-1.26871465
-1.121816673
-0.8719686151
-0.4931959405
0.0411245312
0.7401349047
1.692384696
2.751735392
4.833207617
7.215845164
9.865622214
8.393227386
12.40190675
14.38507921
14.96088697
14.98120112
15.83034662
16.51459312
12.80543598
3.947864156
-6.553832437
-15.13810038
-23.62124659
-20.79664466
-26.16489824
-30.6963808
-35.0802707
-31.94260197
-35.19037322
-38.24283668
-41.3944968
-34.88154895
-36.36421385
-36.69882089
-36.12432095
-34.8653198
-33.13367538
-31.13473972
-26.36648449
-23.88561864
-20.66095711
-18.0649181
-15.66712602
-13.50572153
-11.60811074
-9.987514239
-8.42608785
-6.647832695
-5.231913642
-4.098044491
-3.165505339
-2.431420374
-1.907715648
-1.539181086
-1.277166815
-1.090452778
-0.8246813562
-0.6240380149
-0.51143269
-0.4080215591
-0.3202486363
-0.2492702296
-0.1934836798
-0.1503451385
-0.1166476659
-0.09107833619
-0.0712649357
-0.05587142802
-0.04387632141
-0.03450329676
-0.02716190989
-0.02140106249
-0.01687407886
-0.01331295617
-0.01050953984
-0.008301230041
-0.006560823164
-0.00518855526
-0.004106062057
-0.003251734575
-0.002577114408
-0.002044078798
-0.001622632955
-0.001289175159
-0.001025131784
-0.0008158830659
-0.0006499176328
-0.0005181679114
-0.0004134875197
-0.0003302406771
-0.0002639797335
-0.0002111919527
-0.0001691006789
-0.00013550918
-0.0001086779661
-8.722835813e-05
-7.00666432e-05
-5.632437702e-05
-4.531135736e-05
-3.647854652e-05
-2.938881096e-05
-2.369380828e-05
-1.911571247e-05
-1.543275106e-05
-1.246774806e-05
-1.00790397e-05
-8.153264871e-06
-6.599638291e-06
-5.34539743e-06
-4.33217951e-06
-3.513136106e-06
-2.850633287e-06
-2.314416929e-06
-1.880147935e-06
-1.528231822e-06
-1.242882789e-06
-1.011374681e-06
-8.234410628e-07
-6.707943567e-07
-5.467401052e-07
-4.45867318e-07
-3.637997077e-07
-2.969956954e-07
-2.425875101e-07
-1.982516493e-07
-1.621045158e-07
-1.326182814e-07
-1.085530134e-07
-8.890188371e-08
-7.284691325e-08
-5.972320262e-08
-4.899000526e-08
-4.020732044e-08
-3.301694221e-08
-2.712710732e-08
-2.230005213e-08
-1.834192188e-08
-1.509458335e-08
-1.24289785e-08
-1.023972635e-08
-8.440736475e-09
-6.961642806e-09
-5.744902934e-09
-4.743437564e-09
-3.918708631e-09
-3.239153817e-09
-2.678910765e-09
-2.216776891e-09
-1.835360884e-09
-1.52039024e-09
-1.260145838e-09
-1.045000225e-09
-8.670399332e-10
-7.197570098e-10
-5.977964693e-10
-4.96749679e-10
-4.129851408e-10
-3.435098717e-10
-2.85855781e-10
-2.379864951e-10
-1.982209106e-10
-1.651704407e-10
-1.376874765e-10
-1.148230365e-10
-9.579194919e-11
-7.994421312e-11
-6.674142636e-11
-5.573737763e-11
-4.656205567e-11
-3.890846775e-11
-3.252176783e-11
-2.719028477e-11
-2.273811427e-11
-1.90189987e-11
-1.591126794e-11
-1.331365504e-11
-1.114183325e-11
-9.325548633e-12
-7.806244342e-12
-6.535091106e-12
-5.471353643e-12
-4.581034827e-12
-3.835749809e-12
-3.211790536e-12
-2.689348055e-12
-2.251865624e-12
-1.885500353e-12
-1.578674917e-12
-1.321704092e-12
-1.106483457e-12
-9.262298017e-13
-7.752645407e-13
-6.48832931e-13
-5.429531088e-13
-4.542899754e-13
-3.800497986e-13
-3.178920973e-13
-2.658559466e-13
-2.222983247e-13
-1.858425182e-13
-1.553349324e-13
-1.298089284e-13
-1.084545365e-13
-9.059308587e-14
-7.565594903e-14
-6.316672961e-14
-5.272633506e-14
-4.400046459e-14
-3.670912104e-14
-3.061781866e-14
-2.553021206e-14
-2.128191662e-14
-1.773532776e-14
-1.477527748e-14
-1.230539323e-14
-1.024504549e-14
-8.526789265e-15
-7.094219514e-15
-5.900173962e-15
-4.905227058e-15
-4.076428107e-15
-3.386244184e-15
-2.811674678e-15
-2.33350977e-15
-1.935709532e-15
-1.60488414e-15
-1.329858809e-15
-1.101309727e-15
-9.114594543e-16
-7.538221472e-16
-6.22990488e-16
-5.144575448e-16
-4.244678695e-16
-3.49893061e-16
-2.881278022e-16
-2.370030228e-16
-1.947133838e-16
-1.597567378e-16
-1.308835995e-16
-1.070549819e-16
-8.740722175e-17
-7.122264335e-17
-5.790509783e-17
-4.695957227e-17
-3.79751966e-17
-3.061108505e-17
-2.458454237e-17
-1.966124277e-17
-1.564705315e-17
-1.238122755e-17
-9.730744032e-18
-7.58559363e-18
-5.854862334e-18
-4.463473471e-18
-3.349479998e-18
-2.461814551e-18
-1.758420388e-18
-1.204699267e-18
-7.722229867e-19
-4.376641338e-19
-1.819091251e-19
1.067726385e-20
1.528614666e-19
2.550461082e-19
3.256881408e-19
3.716448551e-19
3.984600543e-19
4.106005512e-19
4.116514976e-19
4.044775603e-19
3.913557992e-19
3.740851149e-19
3.540762886e-19
3.324259676e-19
3.09977379e-19
2.873700711e-19
2.650806012e-19
2.434557478e-19
2.227395682e-19
2.030953838e-19
1.846235968e-19
1.673760825e-19
1.513677727e-19
1.365859414e-19
1.229976097e-19
1.105554202e-19
9.920226366e-20
8.887489437e-20
7.950672755e-20
7.102997669e-20
6.337726176e-20
5.648279374e-20
5.028322327e-20
4.471822325e-20
3.97308638e-20
3.526782544e-20
3.12794884e-20
2.771992845e-20
2.454684309e-20
2.172142777e-20
1.920821713e-20
1.697490347e-20
1.49921416e-20
1.323334745e-20
1.167449566e-20
1.029392057e-20
9.072123193e-21
7.991586579e-21
7.036600748e-21
6.193098168e-21
5.448500164e-21
4.791574369e-21
4.212303134e-21
3.701762537e-21
3.252011629e-21
2.855991355e-21
2.507432626e-21
2.20077292e-21
1.931080832e-21
1.693987956e-21
1.485627526e-21
1.302579247e-21
1.14181978e-21
1.000678368e-21
8.76797145e-22
7.680956657e-22
6.727392574e-22
5.89110817e-22
5.157857037e-22
4.515094132e-22
3.951777437e-22
3.458191937e-22
3.025793525e-22
2.647070714e-22
2.315422193e-22
2.025048517e-22
1.770856355e-22
1.548373894e-22
1.353676147e-22
1.183319049e-22
1.034281332e-22
9.039132965e-23
7.898916703e-23
6.901798676e-23
6.029930024e-23
5.267671089e-23
4.601320732e-23
4.01887833e-23
3.509834656e-23
3.064988132e-23
2.67628348e-23
2.336670045e-23
2.039977455e-23
1.780806521e-23
1.55443352e-23
1.356726262e-23
1.184070488e-23
1.033305359e-23
9.016669093e-24
7.867385083e-24
6.864074517e-24
5.988269479e-24
5.223828234e-24
4.55664373e-24
3.974388383e-24
3.466290704e-24
3.022939795e-24
2.636114273e-24
2.2986326e-24
2.004222058e-24
1.747404516e-24
1.523395796e-24
1.328018387e-24
1.157624766e-24
1.009030448e-24
8.794553916e-25
7.664728704e-25
6.679647261e-25
5.820822837e-25
5.072121923e-25
4.419465794e-25
3.850569751e-25
3.354715329e-25
2.922551313e-25
2.545919936e-25
2.217705084e-25
1.931699743e-25
1.682490246e-25
1.465355206e-25
1.27617728e-25
1.111366134e-25
9.677912047e-26
8.427230046e-26
7.33781898e-26
6.388933946e-26
5.562491381e-26
4.842728656e-26
4.215907062e-26
3.670052694e-26
3.194730393e-26
2.780846557e-26
2.420477147e-26
2.10671767e-26
1.833552351e-26
1.595740042e-26
1.388714732e-26
1.208498805e-26
1.051627403e-26
9.150824885e-27
7.962353665e-27
6.927965742e-27
6.027722064e-27
5.24425849e-27
4.562454013e-27
3.969141642e-27
3.452856441e-27
3.003615987e-27
2.612729076e-27
2.272629051e-27
1.976728596e-27
1.719293243e-27
1.495331169e-27
1.30049721e-27
1.131009255e-27
9.835754203e-28
8.55330627e-28
7.437813681e-28
6.467576066e-28
5.623708891e-28
4.889778724e-28
4.251485657e-28
3.696386798e-28
3.213655525e-28
2.793871898e-28
2.428840204e-28
2.111430113e-28
1.83543842e-28
1.595468688e-28
1.386826496e-28
1.205428259e-28
1.047721876e-28
9.106176637e-29
7.914282537e-29
6.87816289e-29
5.977489079e-29
5.194581378e-29
4.514064324e-29
3.922566852e-29
3.408461398e-29
2.961636901e-29
2.573301315e-29
2.235809799e-29
1.942515259e-29
1.687638316e-29
1.466154209e-29
1.27369441e-29
1.106461048e-29
9.611524746e-30
8.348985266e-30
7.252042176e-30
6.299007699e-30
5.471030277e-30
4.751724203e-30
4.126847561e-30
3.584022159e-30
3.112489998e-30
2.702901516e-30
2.347131467e-30
2.038118834e-30
1.769727643e-30
1.536625953e-30
1.334180657e-30
1.158366022e-30
1.00568418e-30
8.730960205e-31
7.579611066e-31
6.579854562e-31
5.711761493e-31
4.958018749e-31
4.303586412e-31
3.735399723e-31
3.242110073e-31
2.813859913e-31
2.442087134e-31
2.119355079e-31
1.83920483e-31
1.596026848e-31
1.384949443e-31
1.201741867e-31
1.042730115e-31
9.047237723e-32
7.849524538e-32
6.810105931e-32
5.908094724e-32
5.125355526e-32
4.446142746e-32
3.856786161e-32
3.345417791e-32
2.901734655e-32
2.516792724e-32
2.182827953e-32
1.893100843e-32
1.641761461e-32
1.423732201e-32
1.234605985e-32
1.07055785e-32
9.282681852e-33
8.048560705e-33
6.978213952e-33
6.049946035e-33
5.244930598e-33
4.546831666e-33
3.941474742e-33
3.416561295e-33
2.961420882e-33
2.566795984e-33
2.224655223e-33
1.928031238e-33
1.670879958e-33
1.44795846e-33
1.254718957e-33
1.087216792e-33
9.420305874e-34
8.161929515e-34
7.071303431e-34
6.126108895e-34
5.306991051e-34
4.597166024e-34
3.982080001e-34
3.449113459e-34
2.987324532e-34
2.587226456e-34
2.240594093e-34
1.94029687e-34
1.680153079e-34
1.454803875e-34
1.259603897e-34
1.09052639e-34
9.44080882e-35
8.172418351e-35
7.073866623e-35
6.122419993e-35
5.298370553e-35
4.584631092e-35
3.966383147e-35
3.430770894e-35
2.966634738e-35
2.564279168e-35
2.215271235e-35
1.912266226e-35
1.648862582e-35
1.419482882e-35
1.219308725e-35
1.0442393e-35
8.910024532e-36
7.573142587e-36
6.423256089e-36
5.473407611e-36
4.76971776e-36
1.816570915e-36
5.13411751e-37
1.002071231e-37
1.893680795e-38
3.527843831e-39
6.434128966e-40
1.141965474e-40
1.959209909e-41
3.216305638e-42
4.962045021e-43
6.930033831e-44
7.920627825e-45
4.349991835e-46
-1.297404538e-46
-6.572555079e-47
-2.022319379e-47
-5.258754359e-48
-1.250613928e-48
-2.807096e-49
-6.041258722e-50
-1.257865436e-50
-2.547991418e-51
-5.039757858e-52
-9.757885174e-53
-1.852656258e-53
-3.453525522e-54
-6.326008334e-55
-1.139320731e-55
-2.018210114e-56
-3.516617311e-57
-6.028537334e-58
-1.014788869e-58
-1.686231437e-59
-2.865619234e-60
-4.398665319e-61
-5.267401605e-62
9.278578396e-63
-3.852767567e-63
-1.596959412e-63
-7.781654691e-64
9.906304961e-64
4.600719994e-64
-3.835497599e-65
3.159414111e-65
1.27014427e-64
5.985143258e-64
4.374926119e-65
-4.281781245e-64
1.797235037e-64
-1.55248686e-64
2.097359088e-64
3.423428914e-65
-2.862819564e-66
-5.232656525e-65
3.216856113e-65
-8.187985685e-66
-2.983349745e-66
-1.808831046e-66
2.315967473e-66
1.594846702e-66
-1.545483287e-66
4.99184345e-67
-2.36155925e-67
2.140214765e-68
7.024626737e-68
4.845783694e-68
-8.592757167e-69
-7.463816162e-70
-7.578032096e-69
2.572534343e-69
-8.98044091e-69
-8.313525396e-69
7.471865259e-70
3.124610799e-69
-6.797203852e-70
7.832533026e-73
7.467316045e-70
1.045264227e-69
1.964770863e-70
6.603844999e-71
-4.190928935e-70
6.389490587e-71
1.030476411e-70
-1.091752465e-71
-4.138799711e-71
-2.02877408e-71
5.799713211e-72
1.548230524e-72
2.296856283e-72
-9.152516963e-73
-3.930630802e-73
3.298873142e-73
-1.17749267e-73
3.874580968e-74
5.438521863e-74
-1.933385726e-75
8.407378027e-75
-3.288976489e-75
1.833664764e-76
-6.170113655e-76
-1.109812826e-75
5.431884193e-76
3.417476198e-76
-1.315787748e-76
-1.386939435e-77
1.589635651e-78
-7.05531311e-77
-1.781757072e-77
3.236673113e-77
7.64804083e-77
-1.520357503e-77
-3.045461973e-77
-1.155670651e-77
4.269113062e-77
-2.546850389e-77
-3.983902821e-79
2.499611963e-77
1.643153144e-78
-3.051155866e-77
-1.12041647e-78
-5.532392354e-79
-3.948373161e-78
-2.42929186e-77
-1.746964471e-77
-5.825643593e-78
-8.494110396e-78
-7.446575434e-78
-5.22367503e-77
-5.401989556e-78
-3.13262853e-77
-2.485515727e-78
-1.929823996e-77
-4.937000956e-78
1.347354677e-78
-1.855588401e-78
1.119298936e-77
-2.431761955e-77
-6.855821205e-77
-3.658003936e-78
-2.947617559e-77
3.017454385e-77
-1.685552971e-77
-5.217658859e-78
-6.505672145e-77
-1.292345384e-77
-4.636212023e-78
-3.58234386e-77
-1.160623693e-77
7.005948478e-78
-6.485598147e-77
-2.358766855e-77
-1.196366435e-76
-7.964786783e-77
1.87347651e-77
-2.039348353e-77
1.560342759e-77
-2.259969233e-77
2.834220603e-78
9.674008828e-77
-7.887027882e-77
2.674388238e-77
-6.140273349e-77
-2.340491622e-78
-2.823656774e-77
9.649650648e-77
-5.052752739e-77
1.143607353e-76
-3.897821238e-78
-2.870347264e-77
-1.196478469e-77
4.530397611e-77
8.886665892e-77
1.962738389e-77
-9.206024128e-77
-3.255815873e-77
-1.222777922e-76
1.582030195e-77
-2.783267085e-77
-7.193540246e-78
-1.775676114e-77
-8.229730252e-78
-7.882981152e-77
-1.037584497e-76
8.52665757e-79
2.985333004e-78
7.880019974e-79
2.997854064e-79
7.78527192e-77
-8.418721856e-77
-2.32471905e-78
-7.399890653e-78
-8.708840748e-78
-1.185365088e-78
1.623856244e-78
-7.133008884e-79
2.472659082e-79
-9.07195638e-78
3.180212421e-77
9.792697793e-79
2.890810838e-77
8.155912272e-78
1.144004847e-78
-1.503477848e-77
5.431263182e-78
2.593704091e-78
8.683099293e-78
7.567969519e-79
2.170580838e-77
2.702146734e-77
8.274275509e-78
-2.588829391e-77
-2.297514301e-77
-1.902726526e-77
-8.325477507e-78
-4.526556608e-78
-1.071480399e-78
6.418347311e-78
-1.943399792e-77
-1.596089793e-77
-8.241303493e-78
-2.301179289e-78
-1.324127996e-77
-1.383454457e-78
-8.988657453e-80
-1.822015209e-77
2.082814573e-78
-2.252174632e-77
-5.096736843e-78
-2.726044603e-78
2.561174741e-77
6.762090323e-79
-8.193532528e-80
-9.23239292e-79
-3.864580968e-77
-4.399421775e-77
-5.310600094e-77
3.115281098e-77
2.091508221e-77
-5.517766745e-78
3.426909589e-79
-8.955993156e-79
-1.81803294e-77
8.752721104e-77
2.314321128e-77
3.421282973e-77
2.523545724e-77
4.520401651e-79
3.361456634e-79
-8.031416224e-77
1.393384137e-79
)
;

boundaryField
{
    inlet
    {
        type            calculated;
        value           uniform 0;
    }
    outlet
    {
        type            calculated;
        value           uniform 1.393382299e-79;
    }
    wall
    {
        type            empty;
    }
}


// ************************************************************************* //
