/*--------------------------------*- C++ -*----------------------------------*\
  =========                 |
  \\      /  F ield         | OpenFOAM: The Open Source CFD Toolbox
   \\    /   O peration     | Website:  https://openfoam.org
    \\  /    A nd           | Version:  7
     \\/     M anipulation  |
\*---------------------------------------------------------------------------*/
FoamFile
{
    version     2.0;
    format      ascii;
    class       volScalarField;
    location    "0.000558243009";
    object      ddt0(rho,C2H5COCH2);
}
// * * * * * * * * * * * * * * * * * * * * * * * * * * * * * * * * * * * * * //

dimensions      [1 -3 -1 0 0 0 0];

internalField   nonuniform List<scalar> 
1500
(
-1.368636803e-13
-4.126586828e-13
-6.209099654e-13
-6.283778593e-13
-4.812449334e-13
-2.972737029e-13
-1.541276861e-13
-6.898782832e-14
-2.737357429e-14
-1.015190385e-14
-4.142301506e-15
-2.551224639e-15
-2.462539564e-15
-2.796040242e-15
-3.188756429e-15
-3.529126203e-15
-3.784132123e-15
-3.944300807e-15
-4.007857769e-15
-3.97623329e-15
-3.852842739e-15
-3.64268336e-15
-3.352108951e-15
-2.988639826e-15
-2.560778221e-15
-2.077831368e-15
-1.549750288e-15
-9.869907862e-16
-4.003975597e-16
1.988936089e-16
7.995457344e-16
1.390116026e-15
1.95917066e-15
2.495430829e-15
2.987956477e-15
3.426368951e-15
3.801107745e-15
4.103706725e-15
4.327075581e-15
4.465765014e-15
4.51619428e-15
4.476821377e-15
4.348239908e-15
4.13319214e-15
3.836494711e-15
3.46488019e-15
3.026764192e-15
2.531953234e-15
1.991311771e-15
1.416408495e-15
8.191617825e-16
2.115014493e-16
-3.94939211e-16
-9.890913463e-16
-1.560673208e-15
-2.100366379e-15
-2.599947427e-15
-3.052379018e-15
-3.451865717e-15
-3.793879378e-15
-4.075158515e-15
-4.293684449e-15
-4.448636359e-15
-4.540325377e-15
-4.570108328e-15
-4.540280859e-15
-4.453951264e-15
-4.314897227e-15
-4.127409586e-15
-3.896129052e-15
-3.625883152e-15
-3.321531639e-15
-2.987828745e-15
-2.629309903e-15
-2.250209148e-15
-1.854410748e-15
-1.445436373e-15
-1.026465847e-15
-6.003869685e-16
-1.698678585e-16
2.625566332e-16
6.943932504e-16
1.123102308e-15
1.546021472e-15
1.96030765e-15
2.362901873e-15
2.750519699e-15
3.11966781e-15
3.466685551e-15
3.787808527e-15
4.079250145e-15
4.337296191e-15
4.558407005e-15
4.739321606e-15
4.877158421e-15
4.969507273e-15
5.014508411e-15
5.010914576e-15
4.958133603e-15
4.856249698e-15
4.706023059e-15
4.508868634e-15
4.266815981e-15
3.98245332e-15
3.658859654e-15
3.299529384e-15
2.908293977e-15
2.489245011e-15
2.046662175e-15
1.584949008e-15
1.10857796e-15
6.220448771e-16
1.298323413e-16
-3.636203434e-16
-8.539427165e-16
-1.336857277e-15
-1.808204605e-15
-2.263971736e-15
-2.700324996e-15
-3.113647545e-15
-3.500580897e-15
-3.858068581e-15
-4.1833997e-15
-4.474249434e-15
-4.728713632e-15
-4.945335004e-15
-5.123119087e-15
-5.261538935e-15
-5.360528617e-15
-5.42046645e-15
-5.442149718e-15
-5.42676336e-15
-5.375845176e-15
-5.291250165e-15
-5.175116111e-15
-5.029831974e-15
-4.858009521e-15
-4.662458055e-15
-4.446160639e-15
-4.212250059e-15
-3.963981694e-15
-3.704700618e-15
-3.437800434e-15
-3.166671678e-15
-2.89463903e-15
-2.624887399e-15
-2.360378534e-15
-2.10376121e-15
-1.857279601e-15
-1.622685145e-15
-1.401158286e-15
-1.193246598e-15
-9.988256933e-16
-8.170878665e-16
-6.465630505e-16
-4.851735415e-16
-3.303231533e-16
-1.790175043e-16
-2.801142388e-17
1.260244253e-16
2.863260063e-16
4.55858206e-16
6.371476426e-16
8.321369241e-16
1.042070025e-15
1.267417457e-15
1.507846292e-15
1.762238265e-15
2.028755041e-15
2.304946466e-15
2.587894317e-15
2.874380938e-15
3.161069938e-15
3.444685336e-15
3.722175008e-15
3.990845349e-15
4.248457232e-15
4.49327583e-15
4.72407168e-15
4.940074551e-15
5.140886579e-15
5.326364638e-15
5.496485015e-15
5.651205205e-15
5.790337472e-15
5.913447485e-15
6.019788738e-15
6.108278637e-15
6.177519194e-15
6.225859384e-15
6.251493311e-15
6.252584886e-15
6.227408136e-15
6.174491749e-15
6.092757599e-15
5.981643646e-15
5.841204214e-15
5.672182335e-15
5.476049924e-15
5.255011727e-15
5.011970825e-15
4.750450879e-15
4.474472401e-15
4.188381098e-15
3.896627977e-15
3.60350822e-15
3.312869846e-15
3.027814595e-15
2.750420262e-15
2.481522972e-15
2.220602256e-15
1.965811434e-15
1.714188027e-15
1.462064803e-15
1.205677349e-15
9.419339117e-16
6.692800825e-16
3.885563379e-16
1.037171237e-16
-1.777351737e-16
-4.447498583e-16
-6.832876963e-16
-8.77523511e-16
-1.011705475e-15
-1.072597547e-15
-1.052331743e-15
-9.513945561e-16
-7.81380927e-16
-5.670844982e-16
-3.474668597e-16
-1.750752537e-16
-1.135634459e-16
-2.331209127e-16
-6.038186348e-16
-1.287133064e-15
-2.326184963e-15
-3.735503568e-15
-5.491369904e-15
-7.523968182e-15
-9.712655212e-15
-1.188561404e-14
-1.382499953e-14
-1.527840355e-14
-1.597733197e-14
-1.566317344e-14
-1.412277706e-14
-1.123331877e-14
-7.020754433e-15
-1.674672473e-15
4.568314084e-15
8.461522328e-15
8.935634159e-15
9.375453397e-15
9.808188354e-15
1.023939644e-14
1.066959746e-14
1.10978114e-14
1.152335352e-14
1.194565603e-14
1.236434267e-14
1.277908773e-14
1.318953026e-14
1.359530669e-14
1.399598392e-14
1.439112072e-14
1.478027763e-14
1.516297462e-14
1.553872627e-14
1.590703035e-14
1.626738103e-14
1.661924554e-14
1.696205231e-14
1.7295243e-14
1.761821781e-14
1.793038686e-14
1.823107308e-14
1.851964154e-14
1.879539082e-14
1.905763404e-14
1.930560124e-14
1.953854853e-14
1.975565902e-14
1.995610974e-14
2.013904238e-14
2.030353218e-14
2.044865461e-14
2.057343318e-14
2.06768283e-14
2.075778034e-14
2.08151774e-14
2.084784523e-14
2.08545596e-14
2.083403377e-14
2.078494159e-14
2.07058614e-14
2.059531052e-14
2.045175194e-14
2.027354531e-14
2.005896299e-14
1.98062129e-14
1.951337735e-14
1.917845575e-14
1.879931358e-14
1.837372811e-14
1.789932975e-14
1.737361568e-14
1.679393465e-14
1.615748208e-14
1.546129515e-14
1.470223e-14
1.387693087e-14
1.2981871e-14
1.201327011e-14
1.096714305e-14
9.839225348e-15
8.62501759e-15
7.319697666e-15
5.918146478e-15
4.414930647e-15
2.80422962e-15
1.079875687e-15
-7.647172673e-16
-2.736552371e-15
-4.843131796e-15
-7.092399639e-15
-9.492881149e-15
-1.205361171e-14
-1.47842616e-14
-1.769511833e-14
-2.079716946e-14
-2.410211283e-14
-2.762241892e-14
-3.13714009e-14
-3.536318758e-14
-3.961290722e-14
-4.413660807e-14
-4.895142903e-14
-5.407558546e-14
-5.952845486e-14
-6.533068283e-14
-7.150420831e-14
-7.807234886e-14
-8.505989708e-14
-9.24931735e-14
-1.004001255e-13
-1.088104231e-13
-1.177555056e-13
-1.272687277e-13
-1.373854141e-13
-1.481429767e-13
-1.595810086e-13
-1.717413631e-13
-1.846683207e-13
-1.984085993e-13
-2.13011563e-13
-2.285292666e-13
-2.450165575e-13
-2.625312473e-13
-2.811341783e-13
-3.008893382e-13
-3.218639893e-13
-3.441287717e-13
-3.677577956e-13
-3.928287935e-13
-4.194231825e-13
-4.476262052e-13
-4.775269837e-13
-5.09218709e-13
-5.427986065e-13
-5.783681342e-13
-6.160330073e-13
-6.559033035e-13
-6.980935155e-13
-7.42722613e-13
-7.899141259e-13
-8.397961168e-13
-8.92501318e-13
-9.481670484e-13
-1.006935316e-12
-1.068952744e-12
-1.13437059e-12
-1.203344728e-12
-1.27603557e-12
-1.352608057e-12
-1.43323151e-12
-1.518079579e-12
-1.607330164e-12
-1.701165212e-12
-1.799770616e-12
-1.90333606e-12
-2.01205475e-12
-2.126123293e-12
-2.245741406e-12
-2.371111722e-12
-2.502439429e-12
-2.639932071e-12
-2.783799129e-12
-2.934251775e-12
-3.091502468e-12
-3.255764543e-12
-3.427251862e-12
-3.606178331e-12
-3.792757532e-12
-3.987202166e-12
-4.189723655e-12
-4.400531573e-12
-4.619833168e-12
-4.847832847e-12
-5.08473156e-12
-5.330726315e-12
-5.586009574e-12
-5.850768655e-12
-6.125185217e-12
-6.409434542e-12
-6.703685065e-12
-7.008097742e-12
-7.322825358e-12
-7.648012075e-12
-7.983792729e-12
-8.33029231e-12
-8.68762539e-12
-9.055895469e-12
-9.435194583e-12
-9.825602659e-12
-1.022718702e-11
-1.064000195e-11
-1.106408822e-11
-1.149947259e-11
-1.19461675e-11
-1.240417069e-11
-1.287346475e-11
-1.335401701e-11
-1.384577916e-11
-1.434868707e-11
-1.486266061e-11
-1.538760364e-11
-1.592340373e-11
-1.646993239e-11
-1.70270449e-11
-1.759458053e-11
-1.817236266e-11
-1.876019893e-11
-1.935788159e-11
-1.996518773e-11
-2.058187976e-11
-2.120770584e-11
-2.184240031e-11
-2.248568435e-11
-2.313726661e-11
-2.379684388e-11
-2.446410183e-11
-2.513871598e-11
-2.582035233e-11
-2.650866875e-11
-2.720331542e-11
-2.790393646e-11
-2.861017083e-11
-2.932165348e-11
-3.003801676e-11
-3.075889179e-11
-3.14839096e-11
-3.221270306e-11
-3.294490777e-11
-3.368016432e-11
-3.441811936e-11
-3.515842759e-11
-3.590075367e-11
-3.664477366e-11
-3.739017714e-11
-3.81366691e-11
-3.888397202e-11
-3.963182792e-11
-4.03800003e-11
-4.112827659e-11
-4.187647031e-11
-4.262442338e-11
-4.337200845e-11
-4.411913152e-11
-4.486573447e-11
-4.561179728e-11
-4.635734129e-11
-4.710243173e-11
-4.78471803e-11
-4.859174854e-11
-4.933635037e-11
-5.008125564e-11
-5.082679299e-11
-5.157335331e-11
-5.232139316e-11
-5.307143804e-11
-5.382408608e-11
-5.458001185e-11
-5.533997013e-11
-5.610479961e-11
-5.687542712e-11
-5.765287199e-11
-5.843824973e-11
-5.923277671e-11
-6.003777529e-11
-6.085467709e-11
-6.168502899e-11
-6.253049768e-11
-6.339287422e-11
-6.427407953e-11
-6.517616982e-11
-6.610134186e-11
-6.705193794e-11
-6.803045263e-11
-6.903953708e-11
-7.008200424e-11
-7.116083367e-11
-7.22791542e-11
-7.344047774e-11
-7.463890745e-11
-7.588847298e-11
-7.720013572e-11
-7.859001389e-11
-8.003725073e-11
-8.154616627e-11
-8.312155307e-11
-8.476842056e-11
-8.649205137e-11
-8.829799913e-11
-9.019209922e-11
-9.218048164e-11
-9.42695788e-11
-9.646609418e-11
-9.877974635e-11
-1.012568091e-10
-1.038687312e-10
-1.066230769e-10
-1.095282961e-10
-1.125832807e-10
-1.157988201e-10
-1.19190907e-10
-1.227690474e-10
-1.265430793e-10
-1.30523267e-10
-1.347202717e-10
-1.391451551e-10
-1.43809393e-10
-1.487248866e-10
-1.539039751e-10
-1.593594545e-10
-1.651045878e-10
-1.711531243e-10
-1.775193168e-10
-1.842179375e-10
-1.912642992e-10
-1.986742768e-10
-2.064643275e-10
-2.146515177e-10
-2.232535461e-10
-2.32288775e-10
-2.417762567e-10
-2.51735769e-10
-2.621878481e-10
-2.731538261e-10
-2.846558727e-10
-2.96717036e-10
-3.093612919e-10
-3.226135913e-10
-3.364999157e-10
-3.510473325e-10
-3.662840605e-10
-3.822395326e-10
-3.989444709e-10
-4.16430962e-10
-4.34732541e-10
-4.538842853e-10
-4.739229081e-10
-4.94886873e-10
-5.168165099e-10
-5.397541515e-10
-5.637442773e-10
-5.8883369e-10
-6.150717036e-10
-6.425103719e-10
-6.712047488e-10
-7.012132056e-10
-7.325978066e-10
-7.654247705e-10
-7.997650343e-10
-8.356949581e-10
-8.7329721e-10
-9.126618787e-10
-9.53887896e-10
-9.970848522e-10
-1.042375326e-09
-1.089897901e-09
-1.139811043e-09
-1.192298153e-09
-1.247574108e-09
-1.305893773e-09
-1.367563089e-09
-1.432953498e-09
-1.502520772e-09
-1.576829545e-09
-1.656585331e-09
-1.742676294e-09
-1.836227747e-09
-1.938673284e-09
-2.051847591e-09
-2.178107555e-09
-2.320490284e-09
-2.482919274e-09
-2.670473328e-09
-2.889737318e-09
-3.149259593e-09
-3.460148384e-09
-3.836849253e-09
-4.298158464e-09
-4.868543436e-09
-5.579863153e-09
-6.473609058e-09
-7.603823356e-09
-9.040898485e-09
-1.087652276e-08
-1.323011632e-08
-1.6257204e-08
-2.016030559e-08
-2.520309567e-08
-3.172880954e-08
-4.018416069e-08
-5.115040961e-08
-6.538370849e-08
-8.386747e-08
-1.078803183e-07
-1.390842179e-07
-1.796387234e-07
-2.323490129e-07
-3.008575964e-07
-3.898924392e-07
-5.055878968e-07
-6.55899543e-07
-8.511399607e-07
-1.104670193e-06
-1.433791268e-06
-1.860892563e-06
-2.414929346e-06
-3.133321578e-06
-4.064390758e-06
-5.270482633e-06
-6.831962146e-06
-8.852314736e-06
-1.146464691e-05
-1.483995074e-05
-1.919758343e-05
-2.481851688e-05
-3.20620342e-05
-4.138669164e-05
-5.337652472e-05
-6.877365405e-05
-8.85186327e-05
-0.0001138000634
-0.0001461151784
-0.0001873431955
-0.000239833355
-0.0003065090318
-0.0003909901186
-0.0004977334153
-0.0006321913958
-0.0008009870703
-0.001012100296
-0.001275059183
-0.001601121414
-0.002003431974
-0.002497130755
-0.003099380213
-0.003829274615
-0.004707585974
-0.0057562966
-0.006997866555
-0.008454187243
-0.01014518157
-0.01208702745
-0.01429000571
-0.01675600051
-0.01947572085
-0.02242573969
-0.02556549253
-0.02883441144
-0.03214939713
-0.03540287938
-0.03846159593
-0.04116625637
-0.0433319191
-0.04474848586
-0.04518113364
-0.04436829514
-0.04201830415
-0.0378023267
-0.03134521214
-0.02221607441
-0.009932865468
0.005962928197
0.02560091393
0.05123025721
0.07986776127
0.131517422
0.1827520069
0.2166216054
0.1281202494
0.08678380236
-0.005006523802
0.08378992988
0.6581223452
1.523751744
1.55598586
0.1168926548
-1.495380118
-2.061448073
-1.796191378
-1.306689045
-0.822146879
-0.5142532343
-0.314443789
-0.1907754123
-0.1123960009
-0.06769344067
-0.04105279931
-0.02519016259
-0.01523610235
-0.009486918683
-0.005965051156
-0.003788034434
-0.002430128298
-0.001574234678
-0.001030726688
-0.0006720298231
-0.0004462841591
-0.0002964697937
-0.0001989373313
-0.0001340685857
-9.066837048e-05
-6.15197012e-05
-4.192030699e-05
-2.851363076e-05
-1.914260931e-05
-1.284253949e-05
-8.602942588e-06
-5.745965218e-06
-3.833670269e-06
-2.5662387e-06
-1.727139382e-06
-1.169387756e-06
-7.948881613e-07
-5.317359146e-07
-3.547412426e-07
-2.387733203e-07
-1.601270688e-07
-1.070321945e-07
-7.13431228e-08
-4.744174673e-08
-3.148270993e-08
-2.083981491e-08
-1.377299309e-08
-9.083508607e-09
-5.977446497e-09
-3.924129472e-09
-2.569514381e-09
-1.677799997e-09
-1.092190295e-09
-7.085940171e-10
-4.580272661e-10
-2.948575321e-10
-1.889570134e-10
-1.204790672e-10
-7.638019413e-11
-4.810988747e-11
-3.007861321e-11
-1.864361765e-11
-1.143884687e-11
-6.933169036e-12
-4.139797394e-12
-2.425652764e-12
-1.386641865e-12
-7.663088358e-13
-4.029547881e-13
-1.95389032e-13
-8.083796792e-14
-2.076045569e-14
8.213909441e-15
2.004069282e-14
2.289289995e-14
2.143598028e-14
1.824030216e-14
1.46490658e-14
1.130497528e-14
8.464940894e-15
6.184469463e-15
4.422938758e-15
3.101575044e-15
2.13370576e-15
1.439176895e-15
9.50046979e-16
6.117291002e-16
3.819649043e-16
2.28944599e-16
1.292589958e-16
6.601042817e-17
2.721123627e-17
4.494960549e-18
-7.884007242e-18
-1.380604607e-17
-1.584475947e-17
-1.567216725e-17
-1.434792664e-17
-1.252266826e-17
-1.057886925e-17
-8.72701821e-18
-7.07024701e-18
-5.647033337e-18
-4.458865745e-18
-3.487746712e-18
-2.70693601e-18
-2.087277025e-18
-1.600696912e-18
-1.221945136e-18
-9.292712296e-19
-7.044944758e-19
-5.327513314e-19
-4.020957911e-19
-3.030558586e-19
-2.282033272e-19
-1.717654674e-19
-1.292900313e-19
-9.736511723e-20
-7.339021081e-20
-5.539230625e-20
-4.188027269e-20
-3.173080482e-20
-2.409993781e-20
-1.835493113e-20
-1.402217836e-20
-1.074759611e-20
-8.266646839e-21
-6.381745268e-21
-4.945288414e-21
-3.846946706e-21
-3.004168732e-21
-2.355100611e-21
-1.853313609e-21
-1.463881871e-21
-1.160466597e-21
-9.231484817e-22
-7.368160605e-22
-5.899665566e-22
-4.73812707e-22
-3.816165091e-22
-3.081913102e-22
-2.495288781e-22
-2.025193606e-22
-1.647403896e-22
-1.342977499e-22
-1.097045886e-22
-8.978951029e-23
-7.362638006e-23
-6.048049717e-23
-4.976715464e-23
-4.101960466e-23
-3.386419751e-23
-2.800100957e-23
-2.318869001e-23
-1.923256409e-23
-1.597525884e-23
-1.328929169e-23
-1.107119136e-23
-9.236820902e-24
-7.717645613e-24
-6.457747209e-24
-5.41142934e-24
-4.54129243e-24
-3.816682683e-24
-3.212440033e-24
-2.707885291e-24
-2.28599945e-24
-1.932757635e-24
-1.636587498e-24
-1.387928345e-24
-1.178871572e-24
-1.002867146e-24
-8.544835522e-25
-7.292113183e-25
-6.233019753e-25
-5.336358199e-25
-4.576133454e-25
-3.930658754e-25
-3.381819781e-25
-2.914467957e-25
-2.515919426e-25
-2.17554125e-25
-1.884408871e-25
-1.635022598e-25
-1.421072353e-25
-1.237242454e-25
-1.079049389e-25
-9.427068734e-26
-8.250134566e-26
-7.232587966e-26
-6.351454591e-26
-5.587235716e-26
-4.923361262e-26
-4.345732206e-26
-3.842336532e-26
-3.402927358e-26
-3.018752317e-26
-2.682325672e-26
-2.387236785e-26
-2.127988415e-26
-1.899860497e-26
-1.698794752e-26
-1.521297296e-26
-1.364356157e-26
-1.225371247e-26
-1.102094981e-26
-9.925818987e-27
-8.951456533e-27
-8.083225934e-27
-7.308405773e-27
-6.615922358e-27
-5.996124894e-27
-5.440589516e-27
-4.941954055e-27
-4.493773739e-27
-4.090400155e-27
-3.726875398e-27
-3.398841698e-27
-3.102463051e-27
-2.834357941e-27
-2.591541692e-27
-2.371375989e-27
-2.171525136e-27
-1.989918713e-27
-1.824719018e-27
-1.674292488e-27
-1.537185002e-27
-1.41210023e-27
-1.297881281e-27
-1.193494191e-27
-1.098013632e-27
-1.010610461e-27
-9.305406081e-28
-8.57135578e-28
-7.897940198e-28
-7.279744591e-28
-6.711884625e-28
-6.189951646e-28
-5.709960547e-28
-5.268305257e-28
-4.861718709e-28
-4.487238189e-28
-4.14217387e-28
-3.824081401e-28
-3.530736677e-28
-3.260114838e-28
-3.010370254e-28
-2.779819126e-28
-2.566923291e-28
-2.37027776e-28
-2.188596886e-28
-2.020703882e-28
-1.865520736e-28
-1.722059304e-28
-1.589412412e-28
-1.46674743e-28
-1.353299586e-28
-1.248365484e-28
-1.15129818e-28
-1.061502218e-28
-9.784288918e-29
-9.015732921e-29
-8.304693151e-29
-7.646873361e-29
-7.038308862e-29
-6.475336677e-29
-5.95457515e-29
-5.472901459e-29
-5.027425788e-29
-4.615480065e-29
-4.23459374e-29
-3.882480804e-29
-3.557027095e-29
-3.256273467e-29
-2.978407227e-29
-2.721749467e-29
-2.484743117e-29
-2.265948141e-29
-2.064025956e-29
-1.877739219e-29
-1.705938122e-29
-1.54755871e-29
-1.401613065e-29
-1.26718549e-29
-1.143426098e-29
-1.029547072e-29
-9.248168166e-30
-8.285572004e-30
-7.40137949e-30
-6.589756588e-30
-5.845274816e-30
-5.162909385e-30
-4.537995689e-30
-3.966205014e-30
-3.443521989e-30
-2.966221838e-30
-2.530839946e-30
-2.134173021e-30
-1.773247618e-30
-1.445301252e-30
-1.147778283e-30
-8.783030862e-31
-6.346757418e-31
-4.148546169e-31
-2.169488562e-31
-3.920916377e-32
1.199885543e-31
2.62148256e-31
3.886650457e-31
5.008276558e-31
5.998281807e-31
6.867719958e-31
7.626846298e-31
8.285073325e-31
8.851151975e-31
9.333142236e-31
9.738524572e-31
1.007420071e-30
1.034652885e-30
1.056137354e-30
1.07241728e-30
1.083991501e-30
1.091318331e-30
1.09482249e-30
1.094893847e-30
1.091891446e-30
1.086145151e-30
1.07795818e-30
1.067606515e-30
1.055346135e-30
1.041410832e-30
1.026013655e-30
1.0093516e-30
9.916036761e-31
9.729311422e-31
9.534829534e-31
9.333939743e-31
9.127886362e-31
8.917760745e-31
8.704583494e-31
8.489261379e-31
8.272627823e-31
8.055420441e-31
7.838300625e-31
7.621868801e-31
7.406648069e-31
7.193127863e-31
6.981716039e-31
6.772784893e-31
6.566656789e-31
6.363617401e-31
6.16390544e-31
5.967741305e-31
5.775298187e-31
5.586727239e-31
5.402147194e-31
5.221654281e-31
5.045331129e-31
4.873229333e-31
4.70540065e-31
4.541861744e-31
4.382628422e-31
4.227689078e-31
4.077029339e-31
3.930628537e-31
3.788446851e-31
3.650448049e-31
3.516580587e-31
3.386789801e-31
3.261011742e-31
3.139180463e-31
3.02122221e-31
2.907068498e-31
2.7966409e-31
2.689858425e-31
2.586642057e-31
2.486907875e-31
2.390576134e-31
2.297558801e-31
2.207772126e-31
2.121130098e-31
2.037549667e-31
1.956945218e-31
1.879231364e-31
1.804326036e-31
1.732146226e-31
1.662610798e-31
1.595639626e-31
1.531155415e-31
1.469077123e-31
1.40932755e-31
1.351833192e-31
1.296519347e-31
1.243316318e-31
1.192152568e-31
1.14295996e-31
1.095670001e-31
1.050217992e-31
1.006539822e-31
9.645735756e-32
9.242591128e-32
8.855385805e-32
8.483540349e-32
8.12649798e-32
7.783715107e-32
7.454669701e-32
7.138864794e-32
6.835809711e-32
6.545032403e-32
6.266057928e-32
5.998453556e-32
5.7417853e-32
5.495637839e-32
5.259605267e-32
5.033307056e-32
4.816362014e-32
4.608401297e-32
4.409078328e-32
4.218057592e-32
4.035014134e-32
3.85963058e-32
3.691601465e-32
3.530632075e-32
3.376445347e-32
3.228768431e-32
3.087336398e-32
2.951903114e-32
2.822219961e-32
2.698064085e-32
2.579202786e-32
2.465423373e-32
2.356514239e-32
2.25227336e-32
2.152512596e-32
2.057044525e-32
1.965696136e-32
1.878293881e-32
1.794676795e-32
1.714681477e-32
1.638160132e-32
1.564967359e-32
1.494960655e-32
1.428009579e-32
1.363984039e-32
1.302760672e-32
1.244220108e-32
1.188245619e-32
1.134730129e-32
1.083570839e-32
1.034664516e-32
9.879159393e-33
9.432321508e-33
9.005257876e-33
8.597106112e-33
8.20706069e-33
7.834349144e-33
7.478219654e-33
7.137945607e-33
6.812832961e-33
6.502246367e-33
6.205526583e-33
5.922078514e-33
5.651323024e-33
5.392696067e-33
5.14567843e-33
4.909774344e-33
4.684484281e-33
4.469351568e-33
4.263904873e-33
4.067726684e-33
3.880411998e-33
3.701573314e-33
3.530826506e-33
3.367819897e-33
3.212210321e-33
3.063670487e-33
2.921886174e-33
2.786549675e-33
2.657375249e-33
2.53409488e-33
2.416439594e-33
2.304153158e-33
2.196999668e-33
2.094750151e-33
1.997181234e-33
1.904081514e-33
1.81525759e-33
1.730514448e-33
1.649668228e-33
1.57253843e-33
1.498959648e-33
1.428771336e-33
1.36181711e-33
1.297951437e-33
1.237041937e-33
1.1789513e-33
1.123546647e-33
1.070707375e-33
1.020315453e-33
9.72261453e-34
9.264353979e-34
8.827365013e-34
8.410717309e-34
8.013444141e-34
7.634658329e-34
7.273506009e-34
6.929192966e-34
6.600930913e-34
6.288006742e-34
5.989683979e-34
5.705282253e-34
5.434156317e-34
5.175691649e-34
4.929336344e-34
4.694486511e-34
4.470653228e-34
4.25730409e-34
4.053945999e-34
3.860106743e-34
3.675325888e-34
3.499162159e-34
3.331239976e-34
3.171133064e-34
3.01846569e-34
2.872856372e-34
2.733941731e-34
2.601329355e-34
2.474666762e-34
2.35351323e-34
2.237415973e-34
2.125873602e-34
2.018283871e-34
1.913955775e-34
1.812046275e-34
1.711572663e-34
1.61160827e-34
1.511395174e-34
1.411172382e-34
1.313633008e-34
1.227083658e-34
7.711783537e-35
5.396459495e-35
2.723176181e-35
1.372005142e-35
6.992699592e-36
3.619180563e-36
1.911976302e-36
1.035575062e-36
5.761488698e-37
3.295920005e-37
1.93385914e-37
1.153760187e-37
6.984817386e-38
4.258221087e-38
2.599938026e-38
1.574178302e-38
9.400838956e-39
5.53784609e-39
3.18365967e-39
1.765979512e-39
9.000183754e-40
4.258135909e-40
1.328392628e-40
4.305791042e-41
-4.799055214e-41
-6.3081698e-41
-6.458566438e-41
-6.22284324e-41
-5.160339453e-41
-3.788166529e-41
-2.99574451e-41
-1.987978819e-41
-1.947129523e-41
-8.966293162e-42
-6.046380364e-42
-1.678841378e-42
-3.606011102e-42
-3.675920157e-42
-2.090064118e-42
2.130937724e-43
-8.234829651e-44
-3.368365843e-43
-6.242038112e-42
-2.624480449e-42
3.148886828e-42
-5.621524168e-42
-5.715791828e-42
9.552243925e-42
-1.925947263e-41
-8.709070247e-42
-1.368238183e-41
4.410708336e-43
9.390679805e-42
-1.732416772e-41
3.991947945e-42
-7.324203854e-42
-1.209457113e-41
9.894474271e-42
8.793127912e-42
-1.556927989e-41
-2.471897548e-41
-1.354837866e-41
4.218239303e-42
-6.2509903e-42
-1.374766413e-42
-5.289809946e-42
-1.340341695e-43
-1.210516468e-42
-3.058788138e-46
-3.598501044e-42
-3.477299449e-42
-5.188136741e-42
4.344241494e-42
-3.528089172e-42
-5.189406511e-42
-4.041558674e-43
6.241423295e-42
-6.182166782e-42
7.642777976e-42
-8.181044663e-42
8.355353202e-42
-1.647220582e-41
-9.57429799e-43
-5.006244728e-42
9.833105347e-43
-2.590537633e-42
-9.251923772e-43
-2.573641895e-43
-1.104925601e-42
1.97829618e-43
3.822665511e-42
-3.331987426e-42
7.372234294e-43
-1.570176785e-42
1.730551739e-43
-1.794401349e-43
-7.136705045e-43
-3.910789757e-43
-3.587063052e-44
-6.320475454e-44
6.601529638e-45
-5.032021139e-45
1.265382853e-43
-1.092016152e-43
-8.26368598e-44
-3.718237601e-43
-2.005094294e-43
-2.519794861e-43
3.458812054e-43
-4.104619318e-43
1.20686842e-43
1.578460928e-43
-5.79891446e-44
1.88795076e-43
-2.417805243e-43
-3.692018581e-44
-1.120313937e-44
3.495559904e-45
-3.729163506e-45
4.466901532e-44
1.658036716e-43
-1.2618181e-44
-2.686357147e-44
-9.875792099e-45
-2.622887735e-43
6.742229316e-44
-4.229149269e-44
9.112633908e-44
-2.227720548e-43
6.42891635e-44
-1.026165279e-45
-1.905155775e-44
4.697173942e-44
9.604864039e-44
-7.759949272e-44
2.465574949e-44
-3.112302882e-43
3.254109345e-44
1.966361897e-43
-1.578558669e-43
-1.242784779e-43
1.046713656e-43
-9.550156182e-44
2.526539809e-43
1.967518695e-43
-3.281869464e-43
-1.308012741e-43
3.370240479e-43
1.903559703e-43
1.748182655e-43
4.275822352e-44
-1.194805032e-43
-9.07068873e-43
-4.449701948e-43
-1.573004359e-43
-1.801971907e-43
-2.594645553e-43
-1.373316009e-43
2.595925161e-43
1.832357006e-43
4.542689298e-43
-2.31308952e-43
6.15784801e-43
5.800357895e-43
2.400902486e-43
-5.935182782e-44
-2.680750254e-43
6.278280794e-44
7.396052193e-44
5.293484779e-43
-1.463853768e-43
-8.228133955e-44
7.05353661e-44
-2.725164108e-45
-1.347153822e-43
2.055616443e-43
1.991998898e-43
1.208405878e-43
4.043119721e-43
3.489285233e-43
1.702512418e-43
3.631295313e-43
5.059197509e-43
3.060146538e-43
5.427881164e-43
2.251161727e-43
2.002561193e-43
-2.031016876e-43
3.643495419e-43
4.538621204e-45
3.383357368e-43
3.757118467e-43
1.890608873e-43
3.636970018e-43
1.692472836e-43
3.367355932e-43
4.046013413e-44
9.292216325e-44
8.941261849e-44
-1.505900637e-43
-1.951279321e-43
-2.326543575e-43
-6.392508178e-44
-1.520305163e-43
-1.07776036e-43
-1.868817782e-44
-1.373999926e-43
7.776383859e-44
-1.663886996e-43
-1.274376485e-43
5.038007419e-44
8.821866483e-44
-5.934076898e-44
-1.661276998e-44
-6.2059553e-44
2.057597603e-43
-1.227744246e-43
2.641484347e-44
-1.383452545e-44
2.314552533e-44
2.525889332e-44
2.336347699e-44
-3.508943865e-44
-3.609068053e-44
-4.358647492e-44
3.071707252e-44
1.527181464e-43
7.414339318e-44
6.478122305e-46
1.335185023e-44
-6.475968262e-44
-9.823415413e-44
5.957463324e-44
2.555066147e-43
-1.843363963e-43
6.429995036e-44
-8.065882051e-44
-4.730418085e-43
-3.381955636e-43
-3.65498916e-43
-2.504692991e-43
-3.330442398e-43
-5.374121113e-43
-4.486469576e-43
-4.120273336e-43
-6.259013051e-43
-4.782646553e-43
-2.820810272e-43
-1.793463117e-43
-3.665992486e-43
)
;

boundaryField
{
    inlet
    {
        type            calculated;
        value           uniform 0;
    }
    outlet
    {
        type            calculated;
        value           uniform -3.665281271e-43;
    }
    wall
    {
        type            empty;
    }
}


// ************************************************************************* //
