/*--------------------------------*- C++ -*----------------------------------*\
  =========                 |
  \\      /  F ield         | OpenFOAM: The Open Source CFD Toolbox
   \\    /   O peration     | Website:  https://openfoam.org
    \\  /    A nd           | Version:  7
     \\/     M anipulation  |
\*---------------------------------------------------------------------------*/
FoamFile
{
    version     2.0;
    format      ascii;
    class       volScalarField;
    location    "0.000558243009";
    object      ddt0(rho,H2O2);
}
// * * * * * * * * * * * * * * * * * * * * * * * * * * * * * * * * * * * * * //

dimensions      [1 -3 -1 0 0 0 0];

internalField   nonuniform List<scalar> 
1500
(
-2.401337805e-07
-7.528384916e-07
-1.170599416e-06
-1.229226919e-06
-9.795369686e-07
-6.307665987e-07
-3.414469301e-07
-1.597896898e-07
-6.629856824e-08
-2.548363002e-08
-1.02914801e-08
-5.758266717e-09
-5.067512511e-09
-5.551668312e-09
-6.270994566e-09
-6.924526669e-09
-7.421081812e-09
-7.734365645e-09
-7.858828616e-09
-7.796761112e-09
-7.554742152e-09
-7.142546825e-09
-6.572631709e-09
-5.859745608e-09
-5.020564086e-09
-4.073341756e-09
-3.037595944e-09
-1.933833977e-09
-7.833260115e-10
3.920868942e-10
1.570169121e-09
2.728477454e-09
3.84458629e-09
4.89637408e-09
5.862383654e-09
6.722258986e-09
7.45724865e-09
8.050747727e-09
8.4888497e-09
8.760866651e-09
8.859775519e-09
8.78255193e-09
8.530360134e-09
8.108578625e-09
7.526654508e-09
6.797792592e-09
5.938498772e-09
4.968006915e-09
3.907625929e-09
2.780045928e-09
1.60864288e-09
4.168151834e-10
-7.726203109e-10
-1.937953862e-09
-3.059019445e-09
-4.117540516e-09
-5.097388115e-09
-5.984759685e-09
-6.768288378e-09
-7.439092986e-09
-7.990776624e-09
-8.419379981e-09
-8.723293153e-09
-8.90312637e-09
-8.961540823e-09
-8.903039045e-09
-8.733717489e-09
-8.460985428e-09
-8.093258672e-09
-7.639639228e-09
-7.109595494e-09
-6.512659125e-09
-5.858154739e-09
-5.154977887e-09
-4.411432923e-09
-3.635138239e-09
-2.833000999e-09
-2.011257927e-09
-1.17557295e-09
-3.311791963e-10
5.169516647e-10
1.36392951e-09
2.204773139e-09
3.034260829e-09
3.846816313e-09
4.636439918e-09
5.396689741e-09
6.120714186e-09
6.801333496e-09
7.431164397e-09
8.00278011e-09
8.508895776e-09
8.942568971e-09
9.297403775e-09
9.567748435e-09
9.748875813e-09
9.837138284e-09
9.830089569e-09
9.726568213e-09
9.526739384e-09
9.232094056e-09
8.845407477e-09
8.370660263e-09
7.812928796e-09
7.178252035e-09
6.473483703e-09
5.70613858e-09
4.884241667e-09
4.016186847e-09
3.110610969e-09
2.176286028e-09
1.222029908e-09
2.566344422e-10
-7.111933721e-10
-1.67288159e-09
-2.620040572e-09
-3.544512292e-09
-4.438425975e-09
-5.2942625e-09
-6.104927986e-09
-6.863835316e-09
-7.564989723e-09
-8.203074219e-09
-8.773529032e-09
-9.272619499e-09
-9.697487363e-09
-1.004618217e-08
-1.031767036e-08
-1.051182265e-08
-1.062938103e-08
-1.067190926e-08
-1.064173139e-08
-1.054186361e-08
-1.037594415e-08
-1.014816594e-08
-9.863214541e-09
-9.526212539e-09
-9.142669886e-09
-8.718437403e-09
-8.259659543e-09
-7.772721225e-09
-7.264183224e-09
-6.740701578e-09
-6.208926269e-09
-5.675378141e-09
-5.14630384e-09
-4.627512383e-09
-4.124198915e-09
-3.640765013e-09
-3.180645833e-09
-2.746156652e-09
-2.338371427e-09
-1.957046202e-09
-1.600596771e-09
-1.266139869e-09
-9.496003887e-10
-6.458863469e-10
-3.491247239e-10
-5.295067207e-11
2.491657873e-10
5.635714613e-10
8.960815224e-10
1.25165148e-09
1.634091499e-09
2.045841401e-09
2.487824018e-09
2.95938638e-09
3.458335191e-09
3.981064841e-09
4.522769748e-09
5.077726281e-09
5.63962357e-09
6.201917777e-09
6.758183622e-09
7.302434841e-09
7.829388354e-09
8.334652487e-09
8.814824679e-09
9.267493485e-09
9.691148271e-09
1.008500865e-08
1.044879395e-08
1.078245761e-08
1.10859163e-08
1.13588018e-08
1.160026221e-08
1.180883342e-08
1.198239209e-08
1.211819626e-08
1.221300775e-08
1.226328457e-08
1.226542553e-08
1.22160454e-08
1.211225844e-08
1.195195011e-08
1.173401803e-08
1.145856875e-08
1.112705961e-08
1.074237755e-08
1.030884678e-08
9.832161272e-09
9.319232107e-09
8.77794485e-09
8.216822931e-09
7.644596259e-09
7.069689149e-09
6.499648874e-09
5.940559002e-09
5.396494772e-09
4.869096129e-09
4.357342239e-09
3.857611152e-09
3.364092432e-09
2.869593403e-09
2.366730786e-09
1.849440575e-09
1.314674088e-09
7.640797582e-10
2.05413589e-10
-3.466096657e-10
-8.703158952e-10
-1.338169369e-09
-1.719131583e-09
-1.982307845e-09
-2.101737819e-09
-2.061989698e-09
-1.864017687e-09
-1.530563384e-09
-1.110255519e-09
-6.795109521e-10
-3.413926214e-10
-2.20747071e-10
-4.55239606e-10
-1.182303042e-09
-2.522514118e-09
-4.56045134e-09
-7.324631636e-09
-1.076861585e-08
-1.475576316e-08
-1.905038863e-08
-2.331824826e-08
-2.713944542e-08
-3.003700186e-08
-3.152458231e-08
-3.117534987e-08
-2.871144419e-08
-2.409498133e-08
-1.759138674e-08
-9.657972626e-09
-5.510914215e-10
4.876479306e-09
5.762800661e-09
6.250994954e-09
6.629883032e-09
6.974326891e-09
7.301275233e-09
7.611691571e-09
7.902215356e-09
8.167873926e-09
8.403952483e-09
8.606496044e-09
8.772265773e-09
8.898611347e-09
8.9830737e-09
9.023285219e-09
9.016847915e-09
8.961177992e-09
8.853548638e-09
8.69106558e-09
8.47070002e-09
8.189250378e-09
7.843324093e-09
7.429441288e-09
6.943926042e-09
6.383004185e-09
5.742608017e-09
5.018626136e-09
4.206684655e-09
3.302301941e-09
2.300691557e-09
1.196972289e-09
-1.403158919e-11
-1.337663491e-09
-2.779496772e-09
-4.345400714e-09
-6.041414007e-09
-7.873852048e-09
-9.849333343e-09
-1.197469909e-08
-1.425708081e-08
-1.67039241e-08
-1.932296812e-08
-2.212227359e-08
-2.511018041e-08
-2.829542108e-08
-3.168705484e-08
-3.529445649e-08
-3.912741439e-08
-4.319609948e-08
-4.751102029e-08
-5.208314322e-08
-5.692380654e-08
-6.204481918e-08
-6.745836697e-08
-7.317712436e-08
-7.921422202e-08
-8.558327028e-08
-9.229836083e-08
-9.937406687e-08
-1.068254773e-07
-1.146682453e-07
-1.229184921e-07
-1.315929547e-07
-1.407088707e-07
-1.502841046e-07
-1.603370366e-07
-1.708867118e-07
-1.81952759e-07
-1.935553951e-07
-2.057155344e-07
-2.184546719e-07
-2.317949831e-07
-2.457592769e-07
-2.603711099e-07
-2.756546198e-07
-2.916347465e-07
-3.083370283e-07
-3.257877851e-07
-3.440140121e-07
-3.630434699e-07
-3.829046228e-07
-4.036266777e-07
-4.252396317e-07
-4.477741191e-07
-4.712616773e-07
-4.957344753e-07
-5.212255409e-07
-5.477686081e-07
-5.753981591e-07
-6.041495024e-07
-6.340586788e-07
-6.651624827e-07
-6.974984996e-07
-7.31105048e-07
-7.660212075e-07
-8.022868342e-07
-8.399424683e-07
-8.790294392e-07
-9.195897747e-07
-9.616662352e-07
-1.005302291e-06
-1.050542063e-06
-1.097430443e-06
-1.146012878e-06
-1.196335569e-06
-1.248445317e-06
-1.302389487e-06
-1.35821612e-06
-1.415973812e-06
-1.475711699e-06
-1.537479477e-06
-1.601327348e-06
-1.66730597e-06
-1.735466511e-06
-1.805860535e-06
-1.878540045e-06
-1.953557356e-06
-2.030965259e-06
-2.110816712e-06
-2.19316505e-06
-2.27806382e-06
-2.36556681e-06
-2.455727981e-06
-2.548601428e-06
-2.644241411e-06
-2.742702163e-06
-2.844038079e-06
-2.948303447e-06
-3.05555261e-06
-3.165839768e-06
-3.279219029e-06
-3.395744369e-06
-3.51546955e-06
-3.638448171e-06
-3.764733484e-06
-3.894378443e-06
-4.027435754e-06
-4.16395766e-06
-4.303996028e-06
-4.447602344e-06
-4.594827497e-06
-4.745721955e-06
-4.900335599e-06
-5.058717828e-06
-5.220917327e-06
-5.386982279e-06
-5.556960098e-06
-5.730897633e-06
-5.908841041e-06
-6.090835722e-06
-6.276926416e-06
-6.467157068e-06
-6.661570996e-06
-6.86021067e-06
-7.063117907e-06
-7.270333717e-06
-7.481898401e-06
-7.697851588e-06
-7.918232108e-06
-8.143078165e-06
-8.372427291e-06
-8.606316333e-06
-8.844781642e-06
-9.087858834e-06
-9.335583126e-06
-9.587989293e-06
-9.845111533e-06
-1.010698384e-05
-1.03736398e-05
-1.064511287e-05
-1.092143636e-05
-1.120264341e-05
-1.148876736e-05
-1.177984164e-05
-1.207589988e-05
-1.23769761e-05
-1.26831049e-05
-1.299432138e-05
-1.331066144e-05
-1.3632162e-05
-1.395886087e-05
-1.429079724e-05
-1.462801168e-05
-1.497054634e-05
-1.53184451e-05
-1.5671754e-05
-1.60305211e-05
-1.639479706e-05
-1.676463506e-05
-1.714009127e-05
-1.752122507e-05
-1.790809914e-05
-1.830077999e-05
-1.869933799e-05
-1.910384793e-05
-1.951438919e-05
-1.993104597e-05
-2.035390782e-05
-2.078306989e-05
-2.121863327e-05
-2.166070535e-05
-2.210940034e-05
-2.256483937e-05
-2.302715145e-05
-2.349647309e-05
-2.397294948e-05
-2.445673464e-05
-2.494799173e-05
-2.544689379e-05
-2.595362423e-05
-2.646837693e-05
-2.699135752e-05
-2.752278302e-05
-2.806288321e-05
-2.861190059e-05
-2.917009122e-05
-2.973772558e-05
-3.031508867e-05
-3.090248097e-05
-3.150021896e-05
-3.210863598e-05
-3.27280828e-05
-3.335892819e-05
-3.400155987e-05
-3.46563852e-05
-3.532383189e-05
-3.600434873e-05
-3.669840663e-05
-3.740649934e-05
-3.812914393e-05
-3.886688237e-05
-3.962028206e-05
-4.038993652e-05
-4.117646689e-05
-4.198052227e-05
-4.280278129e-05
-4.364395282e-05
-4.450477714e-05
-4.538602712e-05
-4.628850911e-05
-4.72130642e-05
-4.816056955e-05
-4.913193958e-05
-5.0128127e-05
-5.115012438e-05
-5.219896567e-05
-5.327572704e-05
-5.43815286e-05
-5.551753662e-05
-5.66849636e-05
-5.788507127e-05
-5.911917193e-05
-6.038862975e-05
-6.169486294e-05
-6.303934587e-05
-6.442361071e-05
-6.584924874e-05
-6.731791345e-05
-6.883132106e-05
-7.039125138e-05
-7.1999544e-05
-7.365806802e-05
-7.536930293e-05
-7.712457047e-05
-7.89372508e-05
-8.081760524e-05
-8.278151733e-05
-8.480352466e-05
-8.68854743e-05
-8.902994559e-05
-9.12396409e-05
-9.35174154e-05
-9.586626679e-05
-9.828935049e-05
-0.000100789992
-0.0001033717088
-0.0001060381103
-0.000108795674
-0.0001116929815
-0.000114693535
-0.0001178005955
-0.0001210191879
-0.0001243428369
-0.0001277782369
-0.0001313386516
-0.0001350296907
-0.0001388569217
-0.0001428263347
-0.0001469443066
-0.0001512176117
-0.0001556534562
-0.0001602595175
-0.0001650439888
-0.0001700156354
-0.0001751838494
-0.0001805587195
-0.0001861511063
-0.0001919727249
-0.0001980362415
-0.0002043553816
-0.000210945049
-0.0002178214647
-0.0002250023181
-0.0002325069443
-0.0002403565162
-0.0002485742694
-0.0002571857498
-0.0002662190963
-0.0002757053609
-0.0002856788658
-0.0002961776129
-0.0003072437405
-0.0003189240433
-0.0003312705558
-0.000344341218
-0.0003582006175
-0.000372920837
-0.0003885824061
-0.0004052753764
-0.0004231005411
-0.0004421708008
-0.0004626127202
-0.0004845682735
-0.0005081968237
-0.0005336773461
-0.0005612109543
-0.0005910237338
-0.0006233699527
-0.0006585356745
-0.0006968428437
-0.000738653888
-0.0007843769124
-0.0008344715541
-0.0008894555867
-0.0009499123697
-0.001016499236
-0.00108995696
-0.001171120412
-0.001260930575
-0.001360448088
-0.001470868468
-0.001593539304
-0.001729979572
-0.001881901404
-0.002051234589
-0.002240154134
-0.002451111287
-0.002686868427
-0.002950538307
-0.003245628185
-0.003576089424
-0.00394637325
-0.004361493406
-0.004827096518
-0.005349541138
-0.005935986503
-0.006594492132
-0.007334129615
-0.008165108006
-0.009098914464
-0.0101484718
-0.01132831526
-0.01265479028
-0.01414627414
-0.01582342382
-0.01770945355
-0.01983044481
-0.02221569291
-0.02489809418
-0.02791457765
-0.03130658688
-0.03512061672
-0.03940881067
-0.04422962575
-0.04964857046
-0.05573902482
-0.06258314751
-0.07027288148
-0.07891106282
-0.08861264531
-0.099506046
-0.1117346223
-0.1254582885
-0.1408552796
-0.1581240647
-0.1774854216
-0.1991846653
-0.2234940317
-0.2507152112
-0.2811820082
-0.3152631132
-0.3533649401
-0.3959344859
-0.4434621397
-0.4964843423
-0.5555859786
-0.6214023489
-0.6946205
-0.7759796862
-0.8662706301
-0.9663332161
-1.077052142
-1.199350002
-1.334177138
-1.482497563
-1.645270088
-1.823423772
-2.01782795
-2.229248996
-2.458309363
-2.705427017
-2.970749969
-3.254080078
-3.554785286
-3.871713953
-4.203084789
-4.54639295
-4.898311158
-5.254603066
-5.610055691
-5.958441135
-6.292518307
-6.604085792
-6.88409589
-7.122837166
-7.310188866
-7.43594574
-7.490201449
-7.463779512
-7.348683264
-7.138539823
-6.829006873
-6.418108149
-5.906491481
-5.29754854
-4.597438479
-3.814982539
-2.961443174
-2.05025415
-1.09662134
-0.1171842021
0.870387069
1.847757369
2.796266107
3.697118175
4.531292037
5.277213688
5.939400869
6.436647185
6.857187119
6.916985013
6.630082996
6.046848572
5.153547219
3.776333008
1.785272048
-0.8879396441
-4.255418015
-8.212356541
-12.78534027
-17.85186026
-23.35786741
-29.18797484
-36.52526582
-35.20031572
-43.62403652
-52.74192812
-62.54533842
-65.98152739
-77.41669439
-89.71683884
-102.3214913
-105.2302801
-116.1017
-124.7094809
-130.2076669
-132.0810072
-130.5077753
-125.7374902
-116.4832721
-107.2388811
-96.39930262
-86.22067932
-76.27009979
-66.7474672
-57.87885553
-49.85180479
-42.56432708
-35.76520904
-29.86917989
-24.81049453
-20.4968105
-16.91275239
-13.99806405
-11.66076631
-9.78495908
-8.208498963
-6.772441566
-5.592396183
-4.6853125
-3.926131368
-3.294823328
-2.77302237
-2.343573117
-1.99095202
-1.699646085
-1.461381436
-1.264669025
-1.101649277
-0.9659457004
-0.8524074446
-0.7568912839
-0.6760712281
-0.6072788525
-0.5483721463
-0.4976311061
-0.4536666745
-0.4153573128
-0.3817939972
-0.352236862
-0.3260810472
-0.3028294929
-0.2820718981
-0.2634676162
-0.2467323027
-0.231627286
-0.2179510922
-0.2055326689
-0.1942260031
-0.1839057796
-0.1744638832
-0.1658065719
-0.157852181
-0.150529251
-0.1437749943
-0.1375340313
-0.131757344
-0.1264014061
-0.121427454
-0.1168008733
-0.11249068
-0.1084690789
-0.1047110857
-0.1011942023
-0.09789813608
-0.09480455633
-0.09189688208
-0.08916009573
-0.08658058032
-0.08414597486
-0.08184504748
-0.07966758226
-0.07760427863
-0.07564666209
-0.07378700415
-0.07201825066
-0.07033395789
-0.06872823464
-0.06719569085
-0.06573139058
-0.06433081061
-0.06298980203
-0.06170455645
-0.06047157479
-0.05928763986
-0.05814979055
-0.05705529952
-0.05600165198
-0.05498652729
-0.05400778188
-0.05306343363
-0.0521516481
-0.05127072571
-0.05041909009
-0.04959527779
-0.04879792862
-0.04802577683
-0.04727764356
-0.04655242933
-0.04584910769
-0.04516671925
-0.04450436607
-0.04386120704
-0.04323645308
-0.0426293632
-0.04203924069
-0.04146542973
-0.04090731232
-0.04036430531
-0.03983585801
-0.03932144965
-0.03882057102
-0.0383327878
-0.0378576383
-0.03739469878
-0.03694356599
-0.03650385909
-0.03607521472
-0.03565728641
-0.03524974294
-0.03485226795
-0.03446455861
-0.03408632492
-0.03371728897
-0.0333571843
-0.03300575501
-0.03266275541
-0.03232794929
-0.0320011095
-0.03168201724
-0.03137046193
-0.03106624053
-0.03076915723
-0.03047902315
-0.03019565589
-0.02991887924
-0.02964852294
-0.02938442236
-0.0291264182
-0.0288743564
-0.02862808762
-0.02838746738
-0.02815235558
-0.02792261644
-0.02769811833
-0.02747873352
-0.0272643381
-0.02705481168
-0.02685003757
-0.02664990231
-0.02645429562
-0.02626311041
-0.02607624259
-0.02589359088
-0.02571505681
-0.02554054465
-0.02536996116
-0.02520321557
-0.02504021964
-0.02488088735
-0.02472513493
-0.02457288084
-0.02442404553
-0.02427855157
-0.02413632343
-0.0239972875
-0.02386137197
-0.02372850682
-0.02359862379
-0.02347165616
-0.02334753897
-0.02322620873
-0.02310760344
-0.02299166258
-0.02287832712
-0.02276753929
-0.02265924271
-0.02255338232
-0.02244990426
-0.02234875585
-0.02224988575
-0.02215324353
-0.02205878009
-0.02196644724
-0.02187619794
-0.02178798611
-0.02170176666
-0.02161749548
-0.02153512938
-0.02145462608
-0.02137594409
-0.02129904293
-0.02122388281
-0.0211504248
-0.02107863076
-0.02100846324
-0.02093988566
-0.02087286202
-0.02080735711
-0.02074333631
-0.02068076576
-0.02061961218
-0.02055984289
-0.02050142592
-0.02044432978
-0.02038852359
-0.02033397708
-0.02028066044
-0.02022854448
-0.02017760044
-0.02012780012
-0.02007911579
-0.02003152017
-0.0199849865
-0.01993948847
-0.01989500013
-0.01985149603
-0.01980895116
-0.01976734085
-0.01972664087
-0.01968682734
-0.01964787683
-0.01960976621
-0.01957247273
-0.01953597401
-0.01950024799
-0.01946527298
-0.01943102754
-0.01939749063
-0.01936464149
-0.01933245962
-0.01930092491
-0.01927001748
-0.01923971772
-0.01921000633
-0.01918086425
-0.01915227275
-0.01912421324
-0.0190966675
-0.01906961751
-0.01904304548
-0.01901693384
-0.01899126529
-0.01896602279
-0.0189411894
-0.0189167485
-0.01889268367
-0.01886897865
-0.01884561742
-0.01882258414
-0.01879986319
-0.01877743912
-0.0187552967
-0.01873342078
-0.01871179654
-0.01869040922
-0.01866924427
-0.01864828734
-0.0186275242
-0.01860694079
-0.01858652322
-0.01856625779
-0.01854613089
-0.0185261291
-0.01850623914
-0.01848644787
-0.01846674231
-0.01844710958
-0.01842753701
-0.01840801199
-0.01838852209
-0.01836905499
-0.01834959852
-0.0183301406
-0.01831066932
-0.01829117284
-0.01827163951
-0.01825205773
-0.01823241608
-0.01821270318
-0.01819290787
-0.01817301896
-0.01815302551
-0.01813291661
-0.01811268146
-0.01809230941
-0.01807178987
-0.01805111237
-0.01803026654
-0.01800924212
-0.01798802894
-0.01796661692
-0.0179449961
-0.0179231566
-0.01790108864
-0.0178787825
-0.01785622862
-0.01783341749
-0.01781033969
-0.01778698589
-0.01776334688
-0.01773941348
-0.01771517669
-0.01769062748
-0.01766575699
-0.01764055643
-0.01761501711
-0.01758913031
-0.01756288761
-0.01753628045
-0.01750930052
-0.0174819395
-0.01745418917
-0.01742604141
-0.01739748819
-0.01736852151
-0.01733913351
-0.01730931637
-0.01727906238
-0.01724836389
-0.01721721332
-0.01718560321
-0.01715352615
-0.0171209748
-0.01708794191
-0.01705442032
-0.01702040287
-0.01698588261
-0.0169508525
-0.01691530563
-0.01687924162
-0.01684264053
-0.01680550214
-0.01676781957
-0.0167295872
-0.01669079962
-0.0166514514
-0.01661153595
-0.0165710469
-0.01652997804
-0.01648832328
-0.01644607668
-0.01640323244
-0.01635978486
-0.01631572833
-0.01627105736
-0.01622576653
-0.01617985052
-0.01613330413
-0.01608612223
-0.0160382998
-0.01598983187
-0.01594071363
-0.01589094032
-0.0158405073
-0.01578941001
-0.015737644
-0.01568520491
-0.01563208852
-0.01557829063
-0.01552380722
-0.01546863433
-0.01541276813
-0.01535620488
-0.01529894096
-0.01524097284
-0.01518229714
-0.01512291052
-0.01506280984
-0.01500199199
-0.01494045404
-0.01487819314
-0.01481520657
-0.01475149174
-0.01468704615
-0.01462186745
-0.01455595343
-0.01448930194
-0.01442191103
-0.01435377884
-0.01428490363
-0.01421528384
-0.01414491799
-0.01407380476
-0.01400194297
-0.01392933157
-0.01385596965
-0.01378185646
-0.01370699132
-0.01363137381
-0.0135550036
-0.01347788049
-0.01340000442
-0.01332137555
-0.01324199412
-0.01316186059
-0.01308097551
-0.01299933966
-0.01291695391
-0.01283381933
-0.01274993719
-0.01266530882
-0.01257993583
-0.01249381993
-0.01240696306
-0.01231936726
-0.01223103477
-0.01214196804
-0.01205216969
-0.01196164246
-0.01187038934
-0.01177841348
-0.01168571822
-0.01159230705
-0.0114981837
-0.01140335206
-0.01130781621
-0.01121158043
-0.01111464921
-0.01101702718
-0.01091871924
-0.01081973044
-0.01072006605
-0.01061973154
-0.01051873254
-0.01041707497
-0.01031476487
-0.01021180853
-0.01010821246
-0.01000398333
-0.009899128079
-0.009793653786
-0.009687567822
-0.009580877687
-0.00947359117
-0.00936571624
-0.00925726108
-0.009148234075
-0.009038643857
-0.008928499272
-0.008817809346
-0.008706583377
-0.008594830859
-0.008482561475
-0.008369785141
-0.008256512063
-0.008142752549
-0.00802851721
-0.007913816827
-0.007798662476
-0.007683065329
-0.007567036874
-0.00745058881
-0.007333732991
-0.007216481563
-0.00709884679
-0.006980841283
-0.006862477734
-0.006743769122
-0.006624728627
-0.006505369621
-0.006385705687
-0.006265750606
-0.006145518378
-0.006025023212
-0.005904279471
-0.005783301761
-0.005662104835
-0.005540703686
-0.005419113451
-0.005297349476
-0.005175427279
-0.005053362545
-0.004931171163
-0.004808869135
-0.004686472737
-0.00456399828
-0.004441462364
-0.00431888162
-0.004196272984
-0.004073653453
-0.003951040236
-0.003828450728
-0.003705902508
-0.003583413317
-0.003461001217
-0.003338684435
-0.003216481613
-0.003094411654
-0.002972494029
-0.002850748653
-0.002729196233
-0.002607852254
-0.002486751216
-0.002365911117
-0.002245357514
-0.002125117909
-0.00200522229
-0.001885702211
-0.001766592344
-0.001647930943
-0.001529761505
-0.001412131653
-0.001295093568
-0.001178703568
-0.00106302171
-0.0009481115774
-0.0008340367127
-0.0007208638432
-0.0006086493488
-0.0004974696031
-0.0003873231636
-0.0002784794851
-0.000170364051
-6.453626865e-05
4.093899385e-05
0.0001441830693
0.0002439787672
0.0003397005587
0.0004374664397
0.001295216456
0.003381508064
0.00512172897
0.006656812175
0.00798397894
0.009105523228
0.01002698848
0.01075510744
0.01129813783
0.01166565727
0.01186836889
0.01191794914
0.01182687302
0.0116082436
0.01127562291
0.0108428657
0.01032395723
0.009732856643
0.009083347082
0.008388893233
0.007662507984
0.006916628792
0.006163004651
0.005412595215
0.004675482091
0.00396079391
0.003276645466
0.002630091677
0.002027096814
0.00147251936
0.0009701125935
0.0005225405636
0.0001314094513
-0.000202686856
-0.0004801074948
-0.0007020932515
-0.0008706843523
-0.0009886292984
-0.001059286545
-0.001086521304
-0.001074599474
-0.001028081001
-0.0009517148231
-0.0008503374899
-0.0007287773881
-0.0005917662565
-0.0004438594605
-0.0002893661601
-0.0001322902183
2.371768958e-05
0.0001753965877
0.0003199004444
0.0004548126856
0.0005781505144
0.0006883600587
0.0007843033116
0.0008652380026
0.0009307916649
0.0009809310018
0.001015927828
0.001036322627
0.001042886757
0.001036584257
0.001018533992
0.0009899728559
0.0009522205756
0.0009066465862
0.0008546393094
0.0007975781248
0.0007368081939
0.0006736183314
0.0006092219152
0.000544740928
0.0004811930908
0.0004194820533
0.0003603905435
0.0003045764033
0.0002525713204
0.0002047821136
0.0001614943728
0.0001228782032
8.899582679e-05
5.981077394e-05
3.519835019e-05
1.495708365e-05
-1.179171957e-06
-1.352877953e-05
-2.244982321e-05
-2.832785735e-05
-3.156416944e-05
-3.256479733e-05
-3.173050069e-05
-2.944786111e-05
-2.608163093e-05
-2.196841912e-05
-1.741175713e-05
-1.267854511e-05
-7.996844252e-06
-3.554945483e-06
4.983884957e-07
4.052629642e-06
7.033283144e-06
9.398937486e-06
1.113772756e-05
1.226337902e-05
1.281099242e-05
1.283272433e-05
1.239350314e-05
1.156691056e-05
1.043132805e-05
9.066446295e-06
7.550195623e-06
5.956151594e-06
4.351437892e-06
2.795134491e-06
1.337186123e-06
1.777967408e-08
-1.13284338e-06
-2.094187856e-06
-2.854976195e-06
-3.412351016e-06
-3.770872258e-06
-3.941370649e-06
-3.939722125e-06
-3.785596209e-06
-3.501231425e-06
-3.110281149e-06
-2.63676148e-06
-2.10413639e-06
-1.534547744e-06
-9.482077692e-07
-3.629524805e-07
2.060486244e-07
7.464361653e-07
1.248675549e-06
1.705957899e-06
2.114011523e-06
2.470842719e-06
2.776429322e-06
3.032384621e-06
3.241611456e-06
3.407963617e-06
3.535922469e-06
3.630304457e-06
3.696003895e-06
3.737773555e-06
3.760050673e-06
3.766820295e-06
3.761523036e-06
3.746995652e-06
3.725447788e-06
3.698464835e-06
3.667036114e-06
3.631602348e-06
3.592116846e-06
3.548118386e-06
3.498812097e-06
3.443152692e-06
3.379929536e-06
3.307850869e-06
3.225623433e-06
3.132026821e-06
3.025982332e-06
2.906610086e-06
2.773279881e-06
2.625649323e-06
2.463691155e-06
2.287709832e-06
2.098345953e-06
1.896569168e-06
1.683661855e-06
1.461192757e-06
1.230982725e-06
9.95064168e-07
7.556363852e-07
5.15017722e-07
2.755975892e-07
3.978895797e-08
-1.900166693e-07
-4.114888527e-07
-6.223961647e-07
-8.206350652e-07
-1.004256018e-06
-1.171483193e-06
-1.320729176e-06
-1.450605663e-06
-1.559930991e-06
-1.647735708e-06
-1.713265866e-06
-1.75598647e-06
-1.775585554e-06
-1.771977931e-06
-1.745309491e-06
-1.695963392e-06
-1.624565326e-06
-1.531987631e-06
-1.419353784e-06
-1.288038858e-06
-1.139667376e-06
-9.761063799e-07
-7.994546921e-07
-6.120238566e-07
-4.163158217e-07
-2.149922291e-07
-1.083907728e-08
1.93274346e-07
3.94441924e-07
5.897684874e-07
7.764218432e-07
9.516842101e-07
1.113002792e-06
1.258037717e-06
1.384706766e-06
1.491223135e-06
1.576128221e-06
1.638315992e-06
1.677049003e-06
1.691966671e-06
1.683083873e-06
1.650781412e-06
1.59578854e-06
1.519157334e-06
1.42223189e-06
1.30661062e-06
1.17410471e-06
1.026695125e-06
8.664854898e-07
6.956579619e-07
5.164284174e-07
3.310061089e-07
1.41557043e-07
-4.982597663e-08
-2.41148511e-07
-4.305307986e-07
-6.162198585e-07
-7.965930836e-07
-9.701608447e-07
-1.135564564e-06
-1.291575506e-06
-1.437093592e-06
-1.57114582e-06
-1.692881609e-06
-1.801557494e-06
-1.896507011e-06
-1.977088834e-06
-2.042614106e-06
-2.092269265e-06
-2.125039659e-06
-2.139797016e-06
-2.132475206e-06
)
;

boundaryField
{
    inlet
    {
        type            calculated;
        value           uniform 0;
    }
    outlet
    {
        type            calculated;
        value           uniform -1.958256561e-06;
    }
    wall
    {
        type            empty;
    }
}


// ************************************************************************* //
