/*--------------------------------*- C++ -*----------------------------------*\
  =========                 |
  \\      /  F ield         | OpenFOAM: The Open Source CFD Toolbox
   \\    /   O peration     | Website:  https://openfoam.org
    \\  /    A nd           | Version:  7
     \\/     M anipulation  |
\*---------------------------------------------------------------------------*/
FoamFile
{
    version     2.0;
    format      ascii;
    class       volScalarField;
    location    "0.000558243009";
    object      ddt0(rho,C2H6);
}
// * * * * * * * * * * * * * * * * * * * * * * * * * * * * * * * * * * * * * //

dimensions      [1 -3 -1 0 0 0 0];

internalField   nonuniform List<scalar> 
1500
(
-1.161999248e-08
-3.57258079e-08
-5.462474961e-08
-5.627880843e-08
-4.393709548e-08
-2.769229789e-08
-1.466046692e-08
-6.704973946e-09
-2.718521058e-09
-1.025463901e-09
-4.156114489e-10
-2.438980588e-10
-2.254516373e-10
-2.519369796e-10
-2.861264271e-10
-3.163560963e-10
-3.391398727e-10
-3.534773306e-10
-3.591694607e-10
-3.563346462e-10
-3.452767189e-10
-3.264430299e-10
-3.004028838e-10
-2.678302027e-10
-2.294869205e-10
-1.862071138e-10
-1.388825546e-10
-8.845025106e-11
-3.588206236e-11
1.782406634e-11
7.165215855e-11
1.245767565e-10
1.755732051e-10
2.236307426e-10
2.67768963e-10
3.070577727e-10
3.406403964e-10
3.677581326e-10
3.877755751e-10
4.002043791e-10
4.047236524e-10
4.011952071e-10
3.89672239e-10
3.704005e-10
3.438116378e-10
3.10508999e-10
2.712467585e-10
2.269037373e-10
1.784535658e-10
1.269329847e-10
7.341007231e-11
1.895393181e-11
-3.539290631e-11
-8.863849502e-11
-1.398614239e-10
-1.882266134e-10
-2.329971111e-10
-2.735422595e-10
-3.093426936e-10
-3.399926193e-10
-3.651997542e-10
-3.847831932e-10
-3.986693768e-10
-4.068861876e-10
-4.095552191e-10
-4.068821979e-10
-3.991456778e-10
-3.866841992e-10
-3.698822907e-10
-3.491558347e-10
-3.249374548e-10
-2.976626636e-10
-2.677575167e-10
-2.356284613e-10
-2.016549357e-10
-1.661850325e-10
-1.295343501e-10
-9.198785136e-11
-5.380433017e-11
-1.522289274e-11
2.352929718e-11
6.22288044e-11
1.006480323e-10
1.385483922e-10
1.756750976e-10
2.11754016e-10
2.464908085e-10
2.795724169e-10
3.106707886e-10
3.394485727e-10
3.655664295e-10
3.88691506e-10
4.085065916e-10
4.2471945e-10
4.370718459e-10
4.453477884e-10
4.493806142e-10
4.49058549e-10
4.443285246e-10
4.35198088e-10
4.217353646e-10
4.040671566e-10
3.823753455e-10
3.568918767e-10
3.278926794e-10
2.956909072e-10
2.606299215e-10
2.230763937e-10
1.834138521e-10
1.420369256e-10
9.934641695e-11
5.574522649e-11
1.163506595e-11
-3.258623217e-11
-7.652700391e-11
-1.198039162e-10
-1.620442188e-10
-2.02888285e-10
-2.419925562e-10
-2.79032905e-10
-3.137083573e-10
-3.457450042e-10
-3.748999057e-10
-4.009647201e-10
-4.237688057e-10
-4.43181565e-10
-4.591138787e-10
-4.715185235e-10
-4.803895913e-10
-4.857609852e-10
-4.877041548e-10
-4.863252897e-10
-4.817622015e-10
-4.741811276e-10
-4.637736483e-10
-4.507538526e-10
-4.35355797e-10
-4.178312399e-10
-3.984475122e-10
-3.774853617e-10
-3.552365229e-10
-3.320007675e-10
-3.080822181e-10
-2.837847201e-10
-2.59406219e-10
-2.35232134e-10
-2.115278851e-10
-1.885308449e-10
-1.66442128e-10
-1.45418691e-10
-1.255663211e-10
-1.069340894e-10
-8.951084899e-11
-7.322421632e-11
-5.794244991e-11
-4.3479354e-11
-2.960226809e-11
-1.604284827e-11
-2.510274395e-12
1.129381528e-11
2.565941547e-11
4.085222769e-11
5.709867733e-11
7.457285329e-11
9.338623618e-11
1.135809909e-10
1.35127282e-10
1.579248947e-10
1.818090849e-10
2.065602792e-10
2.319169581e-10
2.575907676e-10
2.832827135e-10
3.086992152e-10
3.335667536e-10
3.576439378e-10
3.807301063e-10
4.026697908e-10
4.233528114e-10
4.427101432e-10
4.60706131e-10
4.773279489e-10
4.925734709e-10
5.064388886e-10
5.189073777e-10
5.299400152e-10
5.394699019e-10
5.474000203e-10
5.536050881e-10
5.579371465e-10
5.602343586e-10
5.603321817e-10
5.580759396e-10
5.533337802e-10
5.460090859e-10
5.360514881e-10
5.234658561e-10
5.08318777e-10
4.907421579e-10
4.7093358e-10
4.491532056e-10
4.257168118e-10
4.00984701e-10
3.753463181e-10
3.492005457e-10
3.229323005e-10
2.968864271e-10
2.713408913e-10
2.464818971e-10
2.223843745e-10
1.990016813e-10
1.761683252e-10
1.536188204e-10
1.31024524e-10
1.08048084e-10
8.441242961e-11
5.99782609e-11
3.482089774e-11
9.294722339e-12
-1.592793078e-11
-3.985674159e-11
-6.123356889e-11
-7.864022236e-11
-9.066508459e-11
-9.612199368e-11
-9.430585184e-11
-8.526025633e-11
-7.002430032e-11
-5.081989335e-11
-3.113862042e-11
-1.568955951e-11
-1.017711248e-11
-2.089138469e-11
-5.411186338e-11
-1.153478285e-10
-2.084636027e-10
-3.347612942e-10
-4.921155916e-10
-6.742711924e-10
-8.704218606e-10
-1.065189514e-09
-1.239115955e-09
-1.369771868e-09
-1.433599897e-09
-1.408594832e-09
-1.277972387e-09
-1.034408738e-09
-6.842084051e-10
-2.450499595e-10
2.688203035e-10
5.890315465e-10
6.306532565e-10
6.646751901e-10
6.969256839e-10
7.287251543e-10
7.603127851e-10
7.916131386e-10
8.225070576e-10
8.528707582e-10
8.826102538e-10
9.11655242e-10
9.399469455e-10
9.674338769e-10
9.940601361e-10
1.019767697e-09
1.044496063e-09
1.068178347e-09
1.090744707e-09
1.112121618e-09
1.13223321e-09
1.150999193e-09
1.168333714e-09
1.184149887e-09
1.198354746e-09
1.21085369e-09
1.221541612e-09
1.230314341e-09
1.237058719e-09
1.2416597e-09
1.243991397e-09
1.24392668e-09
1.241328081e-09
1.236053583e-09
1.227953769e-09
1.216868803e-09
1.202634166e-09
1.185075732e-09
1.164008508e-09
1.139240237e-09
1.110568235e-09
1.077778212e-09
1.040645094e-09
9.98931617e-10
9.523901031e-10
9.007571279e-10
8.437563209e-10
7.810986628e-10
7.124777848e-10
6.375711109e-10
5.560416143e-10
4.675320295e-10
3.716684113e-10
2.68055271e-10
1.562794242e-10
3.590447413e-11
-9.352819146e-11
-2.325009724e-10
-3.81520682e-10
-5.411191379e-10
-7.118553339e-10
-8.943182936e-10
-1.089123432e-09
-1.296919973e-09
-1.518386504e-09
-1.754237558e-09
-2.005219429e-09
-2.272117813e-09
-2.555755153e-09
-2.856991773e-09
-3.17673192e-09
-3.515919541e-09
-3.875543967e-09
-4.256638935e-09
-4.660289003e-09
-5.08762328e-09
-5.539826721e-09
-6.018132293e-09
-6.523830631e-09
-7.058266698e-09
-7.622845281e-09
-8.219029771e-09
-8.848345422e-09
-9.512383098e-09
-1.021279399e-08
-1.095130321e-08
-1.172969925e-08
-1.254984586e-08
-1.341367692e-08
-1.432320002e-08
-1.528050171e-08
-1.628774497e-08
-1.734717196e-08
-1.846110739e-08
-1.963195762e-08
-2.08622137e-08
-2.215445365e-08
-2.351134008e-08
-2.493562644e-08
-2.643015462e-08
-2.799785801e-08
-2.964176194e-08
-3.136498258e-08
-3.317073355e-08
-3.506231775e-08
-3.704313729e-08
-3.911668789e-08
-4.128655834e-08
-4.355643624e-08
-4.593010366e-08
-4.841143715e-08
-5.100440893e-08
-5.371308549e-08
-5.654162507e-08
-5.949428073e-08
-6.257539487e-08
-6.57894013e-08
-6.914081904e-08
-7.26342591e-08
-7.627441032e-08
-8.006604736e-08
-8.401402259e-08
-8.812326599e-08
-9.239878047e-08
-9.684563858e-08
-1.014689818e-07
-1.062740098e-07
-1.112659866e-07
-1.164502255e-07
-1.218320939e-07
-1.274170011e-07
-1.33210397e-07
-1.392177669e-07
-1.454446241e-07
-1.518965075e-07
-1.585789694e-07
-1.654975734e-07
-1.726578909e-07
-1.800654871e-07
-1.877259194e-07
-1.956447309e-07
-2.038274365e-07
-2.12279523e-07
-2.210064369e-07
-2.300135815e-07
-2.393063009e-07
-2.488898817e-07
-2.587695352e-07
-2.689503983e-07
-2.794375213e-07
-2.902358572e-07
-3.013502587e-07
-3.127854645e-07
-3.245460987e-07
-3.366366538e-07
-3.490614912e-07
-3.618248263e-07
-3.749307252e-07
-3.883830986e-07
-4.02185688e-07
-4.163420658e-07
-4.308556253e-07
-4.457295729e-07
-4.609669284e-07
-4.765705078e-07
-4.9254293e-07
-5.088866091e-07
-5.256037404e-07
-5.426963112e-07
-5.601660861e-07
-5.780146105e-07
-5.962432083e-07
-6.148529725e-07
-6.338447779e-07
-6.532192707e-07
-6.729768706e-07
-6.931177751e-07
-7.136419639e-07
-7.34549193e-07
-7.558390074e-07
-7.775107469e-07
-7.995635404e-07
-8.219963264e-07
-8.44807855e-07
-8.679966957e-07
-8.915612461e-07
-9.154997535e-07
-9.398103104e-07
-9.644908854e-07
-9.895393229e-07
-1.014953369e-06
-1.040730688e-06
-1.066868873e-06
-1.093365474e-06
-1.120218013e-06
-1.147424012e-06
-1.174981016e-06
-1.202886612e-06
-1.231138459e-06
-1.259734324e-06
-1.288672099e-06
-1.317949836e-06
-1.347565787e-06
-1.377518422e-06
-1.407806492e-06
-1.438429027e-06
-1.469385411e-06
-1.500675406e-06
-1.53229919e-06
-1.564257407e-06
-1.596551219e-06
-1.629182328e-06
-1.662153064e-06
-1.695466387e-06
-1.729125984e-06
-1.763136289e-06
-1.797502551e-06
-1.832230906e-06
-1.867328404e-06
-1.902803092e-06
-1.938664064e-06
-1.974921538e-06
-2.011586914e-06
-2.048672833e-06
-2.086193258e-06
-2.124163543e-06
-2.162600502e-06
-2.20152248e-06
-2.240949443e-06
-2.280903046e-06
-2.321406701e-06
-2.362485687e-06
-2.404167223e-06
-2.446480534e-06
-2.489456974e-06
-2.533130076e-06
-2.577535679e-06
-2.622712003e-06
-2.668699748e-06
-2.7155422e-06
-2.763285318e-06
-2.811977837e-06
-2.861671388e-06
-2.912420596e-06
-2.964283177e-06
-3.017320066e-06
-3.071595537e-06
-3.127177291e-06
-3.184136587e-06
-3.242548402e-06
-3.302491479e-06
-3.36404852e-06
-3.427306306e-06
-3.492355797e-06
-3.559292297e-06
-3.628215598e-06
-3.69923012e-06
-3.77244501e-06
-3.847974357e-06
-3.925937243e-06
-4.006457853e-06
-4.089665449e-06
-4.175692731e-06
-4.264698669e-06
-4.356257545e-06
-4.451135242e-06
-4.549917616e-06
-4.653494712e-06
-4.760530225e-06
-4.87117746e-06
-4.985621579e-06
-5.104054758e-06
-5.226678784e-06
-5.353704627e-06
-5.485353104e-06
-5.621855312e-06
-5.763453305e-06
-5.910396629e-06
-6.063099341e-06
-6.224210775e-06
-6.391817937e-06
-6.566168858e-06
-6.747581932e-06
-6.935769725e-06
-7.131157313e-06
-7.334498241e-06
-7.546134524e-06
-7.766411002e-06
-7.995689764e-06
-8.234347343e-06
-8.482774409e-06
-8.741376326e-06
-9.010573651e-06
-9.290802714e-06
-9.582516577e-06
-9.886185561e-06
-1.02022983e-05
-1.053136269e-05
-1.087390679e-05
-1.123048008e-05
-1.160165471e-05
-1.198802682e-05
-1.239021823e-05
-1.280887805e-05
-1.324468488e-05
-1.369834881e-05
-1.417061423e-05
-1.466226258e-05
-1.517411574e-05
-1.570704001e-05
-1.626195035e-05
-1.683981574e-05
-1.7441665e-05
-1.806859383e-05
-1.872177278e-05
-1.940245688e-05
-2.011199653e-05
-2.085185056e-05
-2.162360139e-05
-2.242897284e-05
-2.326985134e-05
-2.414831033e-05
-2.506663974e-05
-2.602738013e-05
-2.70333635e-05
-2.80877608e-05
-2.919413896e-05
-3.035652741e-05
-3.157949734e-05
-3.286825492e-05
-3.422875204e-05
-3.566781704e-05
-3.719330937e-05
-3.881430267e-05
-4.054130135e-05
-4.238649708e-05
-4.436407201e-05
-4.64905579e-05
-4.878526109e-05
-5.127076501e-05
-5.397352583e-05
-5.692457556e-05
-6.01603559e-05
-6.372370316e-05
-6.766501416e-05
-7.204362525e-05
-7.692944275e-05
-8.24048715e-05
-8.856709482e-05
-9.553077004e-05
-0.0001034312146
-0.0001124281712
-0.0001227102578
-0.0001345002239
-0.0001480611603
-0.0001637038323
-0.0001817953397
-0.0002027693397
-0.0002271381132
-0.0002555068047
-0.0002885902224
-0.0003272326525
-0.0003724312303
-0.0004253634877
-0.0004874198264
-0.0005602417781
-0.000645767079
-0.0007462827425
-0.0008644875431
-0.001003565551
-0.001167272625
-0.001360038137
-0.001587084531
-0.001854567792
-0.002169742414
-0.002541155003
-0.002978871418
-0.003494742999
-0.004102718524
-0.004819209335
-0.005663516513
-0.006658330044
-0.007830311625
-0.009210774394
-0.01083647472
-0.0127505332
-0.0150035046
-0.01765461838
-0.02077321457
-0.02444040221
-0.02875096985
-0.03381558108
-0.03976328898
-0.04674440611
-0.05493376671
-0.0645344166
-0.07578176395
-0.08894821892
-0.1043483373
-0.1223444728
-0.1433529159
-0.1678504702
-0.1963813719
-0.2295644045
-0.268099987
-0.3127769256
-0.3644783975
-0.4241866067
-0.4929855847
-0.5720600914
-0.662692209
-0.7662508357
-0.884175024
-1.01794851
-1.169063231
-1.338972633
-1.529026742
-1.740395445
-1.973973465
-2.230269217
-2.509278429
-2.810345385
-3.1320165
-3.471893062
-3.826492078
-4.191125967
-4.559813072
-4.925231705
-5.278728035
-5.610389303
-5.909185472
-6.163181229
-6.359812506
-6.486212984
-6.529581851
-6.47754579
-6.318514305
-6.041981907
-5.638741064
-5.101061609
-4.422665868
-3.598753247
-2.625871044
-1.501876749
-0.2262354742
1.198604602
2.763798496
4.446279956
6.358825051
8.317725686
11.34719712
14.13351247
16.42844713
15.37181844
19.61513407
23.00785217
26.08036785
28.93365336
31.29553502
32.70065596
32.50726121
30.55508486
26.82327289
18.64703714
9.729677849
-6.821974546
-25.90378731
-50.56950752
-79.81663887
-100.1856599
-133.3519115
-167.329229
-201.0457732
-202.4660541
-228.9525747
-248.394026
-260.2377267
-264.9596755
-263.7873138
-257.4532632
-238.7142337
-223.598009
-203.5841979
-181.3161902
-157.9624219
-134.9611313
-113.2477168
-93.60219429
-76.10695899
-60.48728645
-47.56858832
-37.06628003
-28.63263415
-22.02085697
-16.9227642
-13.02367453
-10.02947597
-7.680941562
-5.801951452
-4.368710985
-3.30226926
-2.486978143
-1.867202903
-1.398383281
-1.045156469
-0.7798498701
-0.58088045
-0.4322066552
-0.3211915653
-0.2384162484
-0.176778229
-0.130936024
-0.09688113642
-0.07161080176
-0.05287917631
-0.03900891517
-0.02874893057
-0.02116715766
-0.0155700707
-0.01144221089
-0.008400884115
-0.006162268299
-0.004516089269
-0.003306722443
-0.002419106605
-0.0017682567
-0.001291464814
-0.0009425066236
-0.0006873421845
-0.0005009290181
-0.0003648621054
-0.0002656280246
-0.0001933147184
-0.0001406589371
-0.0001023436857
-7.44805769e-05
-5.422880709e-05
-3.951497644e-05
-2.882727236e-05
-2.106443201e-05
-1.542501792e-05
-1.132633044e-05
-8.345086236e-06
-6.174065636e-06
-4.590463747e-06
-3.432810272e-06
-2.584156145e-06
-1.959838525e-06
-1.498587014e-06
-1.156065528e-06
-9.001877666e-07
-7.077227092e-07
-5.618373645e-07
-4.50319707e-07
-3.6429468e-07
-2.972972224e-07
-2.4460353e-07
-2.027488946e-07
-1.691802086e-07
-1.420055736e-07
-1.198138632e-07
-1.015446435e-07
-8.639431941e-08
-7.374832946e-08
-6.313206598e-08
-5.417525708e-08
-4.658603047e-08
-4.013194624e-08
-3.462605297e-08
-2.991657189e-08
-2.587920871e-08
-2.241137544e-08
-1.942780686e-08
-1.685720136e-08
-1.463961897e-08
-1.272444379e-08
-1.106877082e-08
-9.63611503e-09
-8.395367979e-09
-7.319946429e-09
-6.387091865e-09
-5.577289799e-09
-4.87378525e-09
-4.262176241e-09
-3.730071145e-09
-3.266798735e-09
-2.863162054e-09
-2.511228925e-09
-2.204153291e-09
-1.936022563e-09
-1.70172702e-09
-1.496847955e-09
-1.317561728e-09
-1.160557645e-09
-1.022967057e-09
-9.023028005e-10
-7.964070389e-10
-7.034063677e-10
-6.216731929e-10
-5.497924924e-10
-4.865331823e-10
-4.30823444e-10
-3.817294497e-10
-3.384370087e-10
-3.00235726e-10
-2.665053199e-10
-2.367037979e-10
-2.103572321e-10
-1.870509123e-10
-1.664216865e-10
-1.481513236e-10
-1.319607601e-10
-1.176051078e-10
-1.048693198e-10
-9.356442476e-11
-8.35242534e-11
-7.460258968e-11
-6.667069082e-11
-5.961512614e-11
-5.333589282e-11
-4.774477154e-11
-4.276389067e-11
-3.832447156e-11
-3.436573128e-11
-3.083392242e-11
-2.768149212e-11
-2.486634523e-11
-2.235119793e-11
-2.010301071e-11
-1.809249019e-11
-1.629365153e-11
-1.468343353e-11
-1.324136002e-11
-1.194924167e-11
-1.07909133e-11
-9.752002294e-12
-8.81972427e-12
-7.98270286e-12
-7.230810438e-12
-6.555027372e-12
-5.947317652e-12
-5.400518821e-12
-4.908244606e-12
-4.464798616e-12
-4.065097991e-12
-3.704605623e-12
-3.379270088e-12
-3.085472371e-12
-2.819978545e-12
-2.579897778e-12
-2.362645009e-12
-2.165907776e-12
-1.987616761e-12
-1.825919537e-12
-1.679157245e-12
-1.545843834e-12
-1.424647552e-12
-1.314374507e-12
-1.213953956e-12
-1.122425274e-12
-1.038926248e-12
-9.626827116e-13
-8.92999265e-13
-8.292510002e-13
-7.708760927e-13
-7.173692427e-13
-6.682757775e-13
-6.231863617e-13
-5.817323161e-13
-5.43581425e-13
-5.084341712e-13
-4.760203692e-13
-4.460961719e-13
-4.184413757e-13
-3.928570256e-13
-3.691632425e-13
-3.471973061e-13
-3.268119279e-13
-3.07873701e-13
-2.902617208e-13
-2.738663174e-13
-2.585879634e-13
-2.443362622e-13
-2.31029058e-13
-2.18591621e-13
-2.069559345e-13
-1.960600365e-13
-1.858474418e-13
-1.762666056e-13
-1.672704618e-13
-1.588159924e-13
-1.508638498e-13
-1.433780207e-13
-1.363254901e-13
-1.296759887e-13
-1.234017269e-13
-1.174771752e-13
-1.118788544e-13
-1.065851489e-13
-1.015761472e-13
-9.683348315e-14
-9.234020322e-14
-8.808064579e-14
-8.40403222e-14
-8.020582003e-14
-7.656470944e-14
-7.31054657e-14
-6.981738621e-14
-6.669052738e-14
-6.371563647e-14
-6.088410163e-14
-5.81878973e-14
-5.561953645e-14
-5.31720276e-14
-5.083884391e-14
-4.861387401e-14
-4.649139773e-14
-4.446605866e-14
-4.253283269e-14
-4.068700396e-14
-3.892414131e-14
-3.72400812e-14
-3.563090863e-14
-3.40929364e-14
-3.26226894e-14
-3.121689456e-14
-2.987245742e-14
-2.858646039e-14
-2.735614439e-14
-2.617890187e-14
-2.505226703e-14
-2.397390266e-14
-2.294159935e-14
-2.195325787e-14
-2.100688993e-14
-2.010060738e-14
-1.923261989e-14
-1.840122861e-14
-1.760481335e-14
-1.684183436e-14
-1.611083307e-14
-1.541041584e-14
-1.473925853e-14
-1.409609837e-14
-1.347973403e-14
-1.288901991e-14
-1.232286342e-14
-1.178022151e-14
-1.126009949e-14
-1.076154828e-14
-1.028366204e-14
-9.825574425e-15
-9.386456173e-15
-8.965520481e-15
-8.562011665e-15
-8.175206435e-15
-7.804416802e-15
-7.448980067e-15
-7.108264223e-15
-6.781665311e-15
-6.46860551e-15
-6.168530727e-15
-5.880910107e-15
-5.605235213e-15
-5.341020293e-15
-5.0877979e-15
-4.845122652e-15
-4.612566286e-15
-4.389719008e-15
-4.176186969e-15
-3.971594313e-15
-3.775579209e-15
-3.587795748e-15
-3.407911599e-15
-3.235607992e-15
-3.070579901e-15
-2.912532802e-15
-2.761186647e-15
-2.616271651e-15
-2.477528339e-15
-2.344709555e-15
-2.217575406e-15
-2.09589772e-15
-1.979457375e-15
-1.868043585e-15
-1.761453646e-15
-1.659494015e-15
-1.561977062e-15
-1.468724155e-15
-1.379564452e-15
-1.294332332e-15
-1.212869119e-15
-1.135022816e-15
-1.06064741e-15
-9.896013725e-16
-9.217513572e-16
-8.569673737e-16
-7.951253688e-16
-7.361055086e-16
-6.797935541e-16
-6.260794698e-16
-5.748571427e-16
-5.260256715e-16
-4.794873063e-16
-4.351471723e-16
-3.929150855e-16
-3.527062869e-16
-3.144359999e-16
-2.780251509e-16
-2.433970168e-16
-2.104776043e-16
-1.791975036e-16
-1.49487372e-16
-1.21281504e-16
-9.451798291e-17
-6.913609167e-17
-4.507824794e-17
-2.228996337e-17
-7.169964295e-19
1.969183307e-17
3.898656741e-17
5.721377199e-17
7.44193976e-17
9.064666787e-17
1.059376303e-16
1.203325006e-16
1.338700187e-16
1.465880036e-16
1.585223283e-16
1.697063459e-16
1.801732892e-16
1.899543433e-16
1.990799432e-16
2.075795236e-16
2.154806859e-16
2.228103079e-16
2.295945843e-16
2.358580289e-16
2.416248932e-16
2.469175858e-16
2.517579225e-16
2.561672359e-16
2.601652824e-16
2.637714419e-16
2.670042687e-16
2.698815977e-16
2.724205612e-16
2.746375889e-16
2.765484453e-16
2.78168881e-16
2.795124397e-16
2.805923095e-16
2.814226044e-16
2.820159867e-16
2.823848736e-16
2.825412385e-16
2.824962114e-16
2.822599196e-16
2.818426096e-16
2.812546539e-16
2.805055034e-16
2.796043528e-16
2.785600548e-16
2.773803152e-16
2.760733449e-16
2.746463756e-16
2.731070978e-16
2.714625619e-16
2.697193304e-16
2.678839518e-16
2.659621272e-16
2.639600662e-16
2.618831831e-16
2.597366576e-16
2.575258911e-16
2.55255746e-16
2.529305479e-16
2.505548266e-16
2.481327247e-16
2.45668291e-16
2.431656279e-16
2.406281481e-16
2.380594911e-16
2.354628484e-16
2.328412933e-16
2.301982493e-16
2.275362565e-16
2.248583942e-16
2.221670401e-16
2.194648323e-16
2.167539104e-16
2.140367884e-16
2.113155458e-16
2.085917713e-16
2.05867741e-16
2.031452108e-16
2.004257161e-16
1.977109483e-16
1.950027556e-16
1.923022104e-16
1.896105978e-16
1.869295819e-16
1.842599923e-16
1.816034224e-16
1.78960835e-16
1.763334226e-16
1.737216496e-16
1.711265525e-16
1.685489582e-16
1.659897059e-16
1.634493577e-16
1.609286186e-16
1.584281976e-16
1.559488351e-16
1.534909528e-16
1.510550961e-16
1.486416338e-16
1.462509195e-16
1.438833714e-16
1.41539351e-16
1.392195956e-16
1.369240841e-16
1.346530053e-16
1.324063378e-16
1.301842886e-16
1.279872513e-16
1.258156108e-16
1.236693939e-16
1.215486763e-16
1.194532129e-16
1.173831823e-16
1.153389246e-16
1.133202743e-16
1.113270494e-16
1.093594076e-16
1.074174693e-16
1.055010923e-16
1.036102699e-16
1.017450374e-16
9.99051961e-17
9.809075876e-17
9.63015631e-17
9.453718681e-17
9.279797322e-17
9.108354782e-17
8.939377931e-17
8.772850415e-17
8.608775271e-17
8.447147268e-17
8.287913673e-17
8.131085141e-17
7.976640004e-17
7.824562527e-17
7.674828854e-17
7.527430277e-17
7.382371466e-17
7.239602452e-17
7.099111446e-17
6.960886884e-17
6.824905294e-17
6.691152589e-17
6.559604519e-17
6.43024114e-17
6.303053809e-17
6.178024817e-17
6.055131432e-17
5.934369243e-17
5.815731149e-17
5.69918646e-17
5.584714316e-17
5.472296253e-17
5.361913032e-17
5.253553162e-17
5.147216298e-17
5.042897617e-17
4.940555117e-17
4.840209749e-17
4.741838405e-17
4.645428989e-17
4.550978812e-17
4.458467656e-17
4.367896932e-17
4.279270055e-17
4.192586016e-17
4.10783961e-17
4.025035015e-17
3.944196919e-17
3.865332657e-17
3.788472766e-17
3.713620737e-17
3.640764763e-17
3.569881199e-17
3.500865032e-17
3.433464875e-17
3.36732286e-17
3.301481705e-17
3.234798119e-17
3.164841157e-17
3.088008271e-17
2.998838564e-17
2.88992414e-17
1.748710797e-17
1.791105274e-17
1.289965093e-17
9.219986293e-18
6.53413625e-18
4.582625111e-18
3.181534344e-18
2.186148677e-18
1.486414129e-18
1.0006867e-18
6.675378162e-19
4.397532673e-19
2.86892579e-19
1.84811619e-19
1.178072544e-19
7.396297359e-20
4.568514077e-20
2.783357501e-20
1.658867242e-20
9.648284397e-21
5.331898604e-21
2.868752877e-21
1.352210216e-21
6.946807662e-22
1.848672651e-22
5.474029032e-24
-8.905235738e-23
-1.208372534e-22
-1.144185949e-22
-9.569918735e-23
-7.688285619e-23
-5.289906164e-23
-4.329659506e-23
-2.95122261e-23
-1.816088229e-23
-8.258032395e-24
-1.249800357e-23
-9.034537712e-24
-7.464024672e-24
-3.274032847e-24
-1.74104585e-24
1.434118354e-24
-1.026558924e-23
-1.360064166e-23
-6.389204358e-25
-9.703822261e-24
-2.258055646e-23
1.68784927e-23
-3.900248544e-23
-1.820171542e-23
-9.381680681e-24
-9.499668889e-24
4.67310587e-24
-2.38256883e-23
-2.139501967e-23
-1.639340728e-23
-7.718382842e-24
5.580703057e-24
8.906433632e-24
-2.106611797e-23
-3.304119283e-23
-2.920535604e-23
-5.141977883e-24
-1.971898327e-23
-7.083022383e-24
-1.242650463e-23
-6.568854763e-24
-7.34321266e-24
-6.417649253e-24
-8.426044847e-24
-4.641012906e-24
-6.008476439e-24
-1.232577171e-24
-2.558061033e-24
-3.834127856e-24
-5.577206666e-24
-6.520039511e-25
-8.442733946e-24
2.42838755e-24
-1.107027668e-23
6.331892352e-25
-1.505503555e-23
-4.800335858e-24
-2.357739802e-24
-5.376411263e-26
-3.132933894e-24
-3.200394358e-24
-2.166632239e-24
-2.697938126e-24
-2.146591423e-24
2.24834562e-24
-3.349389278e-24
-8.371729547e-25
-2.318484406e-24
-3.347295406e-25
-3.301058526e-25
-6.366814494e-25
-4.929620754e-25
-9.836627515e-26
7.124104161e-26
-8.531439827e-26
1.717795547e-25
1.581099025e-25
-1.606544559e-27
-3.599403076e-26
-2.504447205e-25
-1.822851749e-26
-1.331218598e-25
3.892126055e-25
-1.611303137e-25
2.191331519e-25
2.100864924e-25
4.384661852e-26
2.038814657e-25
-1.686097418e-25
-3.95176827e-26
3.058453293e-26
-2.381952278e-26
1.781396304e-26
-7.649706875e-27
1.738493191e-25
-3.612258593e-26
-1.622112812e-26
-2.198090215e-26
-3.126540656e-25
1.212050035e-26
-2.471614858e-26
4.517434104e-26
-2.323665312e-25
-8.375345027e-26
-2.268362158e-26
5.433002985e-26
-1.177810525e-25
1.220981047e-25
-1.107785008e-25
-3.672357111e-26
-2.696484414e-25
-1.388860107e-25
2.021901316e-25
-1.136375077e-25
1.316157286e-25
1.386999968e-26
1.030009821e-27
8.067474109e-26
2.251825042e-25
-1.641162774e-26
-1.490042838e-25
3.646770695e-25
2.489218492e-25
1.3010525e-25
1.773882514e-25
-2.755929309e-25
-6.702317427e-25
-3.327923603e-25
-1.650244522e-25
-5.012770412e-26
-2.514736721e-25
-9.051253706e-26
2.704696686e-25
1.658924362e-25
4.870898715e-25
-8.903738272e-27
6.002455973e-25
6.687050873e-25
1.705012652e-25
3.156842315e-26
-1.539531079e-25
-1.04992145e-25
2.450643912e-26
3.472273316e-25
3.697200302e-26
4.657572475e-26
-7.358097066e-26
-1.008959174e-25
-1.072211296e-25
1.91046077e-25
3.81264657e-25
1.583997967e-25
3.90602746e-25
3.518597494e-25
1.740686432e-25
2.604613165e-25
3.958984738e-25
2.6635729e-25
4.508365164e-25
1.329401514e-25
9.651128541e-26
-1.973958792e-25
2.608161673e-25
-5.883382852e-26
1.798172096e-25
2.95586161e-25
-2.475813337e-26
2.688206823e-25
2.378381388e-25
1.89487939e-25
8.335521533e-26
9.220417154e-26
1.727526068e-25
-2.786579987e-25
-2.896976821e-25
-1.122938025e-25
4.41541822e-26
-9.118010506e-26
-8.319855977e-26
-8.838024963e-26
-1.286273665e-25
2.418381517e-26
-2.224910816e-26
-1.148373129e-25
5.631632005e-26
1.315090185e-25
-8.977179524e-26
-1.44424251e-25
-1.250232211e-25
1.811388759e-25
-1.572164587e-25
1.444206099e-26
-5.901812701e-26
7.306335801e-27
-4.122109753e-27
-3.329308524e-26
-7.329904001e-26
-5.198468771e-26
-8.288391405e-26
-5.909073913e-26
1.205706252e-25
-7.710486894e-26
1.175202513e-25
-7.285282039e-26
-1.412017198e-25
-1.179288952e-25
5.921110557e-26
5.279580903e-26
-3.475348741e-25
1.578598583e-25
-1.411205704e-25
-3.344862854e-25
-3.225171382e-25
-3.046539596e-25
-4.243605545e-25
-3.4366607e-25
-4.434800371e-25
-3.940307531e-25
-2.893967213e-25
-6.875548682e-25
-5.359854074e-25
-1.379372088e-25
-2.412388573e-26
-3.129176164e-25
)
;

boundaryField
{
    inlet
    {
        type            calculated;
        value           uniform 0;
    }
    outlet
    {
        type            calculated;
        value           uniform -3.123949738e-25;
    }
    wall
    {
        type            empty;
    }
}


// ************************************************************************* //
