/*--------------------------------*- C++ -*----------------------------------*\
  =========                 |
  \\      /  F ield         | OpenFOAM: The Open Source CFD Toolbox
   \\    /   O peration     | Website:  https://openfoam.org
    \\  /    A nd           | Version:  7
     \\/     M anipulation  |
\*---------------------------------------------------------------------------*/
FoamFile
{
    version     2.0;
    format      ascii;
    class       volScalarField;
    location    "0.000558243009";
    object      ddt0(p);
}
// * * * * * * * * * * * * * * * * * * * * * * * * * * * * * * * * * * * * * //

dimensions      [1 -1 -3 0 0 0 0];

internalField   nonuniform List<scalar> 
1500
(
33912860.94
32938638.62
31034388.76
28171531.4
24482138.35
20011050.4
15006861.74
9575764.91
3978123.272
-1672125.78
-7157412.706
-12365656.34
-17137821.09
-21374890.3
-24978645.83
-27880477.39
-30032725.84
-31408020.8
-31999137.34
-31816856.44
-30888032.57
-29253611.88
-26966593.77
-24090039.86
-20695183.84
-16859688.73
-12666082.55
-8200389.249
-3550952.437
1192573.376
5940113.948
10602019.67
15089944.03
19317836.96
23203112.94
26668031.99
29641292.81
32059779.09
33870385.29
35031795.24
35516075.18
35309941.6
34415578.45
32850908.88
30649269.75
27858485.07
24539382.85
20763841.71
16612486.17
12172166.17
7533361.894
2787643.995
-1974700.322
-6666791.112
-11206976.75
-15520327.86
-19539804.95
-23207118.38
-26473310.48
-29299093.25
-31654972.06
-33521178.33
-34887427.91
-35752511.53
-36123720.72
-36016111.02
-35451609.01
-34457977.2
-33067662.83
-31316568.83
-29242796.9
-26885420.86
-24283351.6
-21474353.66
-18494263.7
-15376447.46
-12151514.66
-8847289.872
-5489018.125
-2099766.27
1299033.148
4686956.314
8043945.108
11349708.02
14583218.08
17722349.62
20743682.47
23622487.75
26332894.8
28848227.42
31141486.08
33185945.76
34955834.09
36427049.98
37577884.35
38389704.38
38847566.56
38940727.87
38663031.22
38013148.19
36994669.73
35616045.38
33890379.11
31835099.04
29471524.22
26824357.31
23921134.73
20791665.59
17467487.14
13981360.87
10366824.88
6657810.461
2888322.089
-907827.1368
-4697238.327
-8447126.426
-12125513.28
-15701432.17
-19145155.07
-22428448.34
-25524856.72
-28410007.27
-31061920.64
-33461311.55
-35591859.83
-37440433.47
-38997248.18
-40255953.27
-41213639.47
-41870770.94
-42231049.96
-42301227.57
-42090876.8
-41612145.97
-40879508.2
-39909520.18
-38720597.92
-37332811.3
-35767693.21
-34048052.15
-32197774.32
-30241596.85
-28204834.83
-26113046.24
-23991624.67
-21865315.78
-19757662.36
-17690393.78
-15682783.33
-13751005.94
-11907536.85
-10160633.64
-8513945.972
-6966293.812
-5511647.502
-4139333.308
-2834474.524
-1578662.966
-350839.3492
871654.7535
2111905.129
3392196.387
4732797.748
6150837.029
7659335.132
9266464.285
10975082.51
12782577.38
14681032.64
16657708.33
18695800.18
20775424.61
22874754.96
24971224.17
27042700.28
29068543.99
31030467.52
32913130.77
34704433
36395488.82
37980304.38
39455199.58
40818044.74
42067398.54
43201641.05
44218195.38
45112919.38
45879729.56
46510494.9
46995209.69
47322427.79
47479916.9
47455474.46
47237837.11
46817613.47
46188174.25
45346443.23
44293541.03
43035245.54
41582237.17
39950102.16
38159067.44
36233441.61
34200742.05
32090500.04
29932759.25
27756319.2
25586822.01
23444835.59
21344141.05
19290473.88
17280988.96
15304702.86
13344106.83
11378032.87
9385697.934
7351657.875
5271190.9
3155429.823
1035407.057
-1035902.796
-2984426.136
-4719434.172
-6141993.63
-7157380.236
-7690855.574
-7705589.784
-7220904.002
-6328484.963
-5203880.332
-4110495.787
-3393555.811
-3462095.184
-4758029.972
-7712666.755
-12692575.95
-19938437.84
-29502109.39
-41188571.4
-54510384.23
-68662617.57
-82525831.68
-94703276.63
-103596660
-107520438.8
-104855285.2
-94223390.02
-74708515.98
-45982409.18
-8411758.138
15255168.04
18188751.75
21151306.91
24140549.01
27152514.03
30187765.16
33244333.57
36322286.01
39420274.49
42537617.23
45673356.52
48826578.44
51996335.7
55181659.24
58381557.27
61595015.65
64820997.55
68058443.63
71306272.04
74563378.4
77828635.92
81100895.37
84378985.23
87661711.64
90947858.58
94236187.95
97525439.6
100814331.6
104101560.1
107385799.7
110665703.7
113939903.6
117207010.1
120465612.8
123714280.5
126951561.3
130175982.9
133386053
136580259.2
139757069.3
142914931.7
146052275.8
149167511.9
152259031.8
155325208.8
158364398.4
161374938.5
164355149.3
167303334.5
170217780.9
173096759.1
175938523.9
178741314.7
181503356
184222857.6
186898015
189527010.4
192108012.5
194639177.4
197118649
199544559.4
201915029.5
204228169.6
206482079.9
208674851.1
210804564.7
212869294.2
214867104.9
216796055.3
218654197.1
220439576.5
222150234
223784205.8
225339524.2
226814218.3
228206314.8
229513838.5
230734813.3
231867262.8
232909211.2
233858683.8
234713708.1
235472314.3
236132536.5
236692413.2
237149988.1
237503311.2
237750439.7
237889438.4
237918381.1
237835351.3
237638443.1
237325762
236895426.2
236345567
235674330.5
234879877.7
233960386.1
232914050.6
231739084.1
230433718.9
228996207.8
227424824.6
225717865.8
223873651
221890524.6
219766856.1
217501042
215091506.2
212536701.4
209835110.4
206985246.6
203985655.6
200834916.3
197531641.6
194074480.1
190462116.7
186693274.3
182766714.2
178681238
174435688.3
170028950
165459951.3
160727665.3
155831110.5
150769352.6
145541505.1
140146731
134584243.5
128853307.6
122953241
116883415.2
110643256.8
104232248.9
97649931.83
90895904.43
83969825.43
76871414.4
69600452.98
62156786
54540322.64
46751037.54
38788971.96
30654234.88
22347004.08
13867527.36
5216123.539
-3606816.442
-12600828.35
-21765373.67
-31099838.57
-40603532.77
-50275688.58
-60115459.8
-70121920.73
-80294065.32
-90630805.99
-101130972.7
-111793312
-122616486.3
-133599072.7
-144739562
-156036358.4
-167487777.9
-179092047.8
-190847306.2
-202751600.6
-214802887.4
-226999031.4
-239337804.6
-251816886
-264433860.2
-277186217.9
-290071353.9
-303086567.6
-316229062
-329495943.1
-342884219.5
-356390802
-370012503.1
-383746036.4
-397588016.5
-411534958.6
-425583278.1
-439729290.5
-453969210.9
-468299154
-482715134.1
-497213064.5
-511788758
-526437926.5
-541156181.1
-555939032.2
-570781889.6
-585680062.6
-600628760.3
-615623091.7
-630658066
-645728593
-660829483.8
-675955450.5
-691101107.3
-706260971.2
-721429461.7
-736600902.6
-751769521.8
-766929452.7
-782074734.5
-797199313.6
-812297044.3
-827361689.7
-842386923.2
-857366329.2
-872293404.5
-887161559.7
-901964120.2
-916694328
-931345343
-945910244.8
-960382033.7
-974753633.1
-989017891.1
-1003167582
-1017195409
-1031094005
-1044855937
-1058473704
-1071939745
-1085246436
-1098386097
-1111350990
-1124133325
-1136725263
-1149118915
-1161306349
-1173279592
-1185030629
-1196551415
-1207833868
-1218869880
-1229651317
-1240170025
-1250417831
-1260386547
-1270067977
-1279453918
-1288536166
-1297306520
-1305756783
-1313878774
-1321664326
-1329105293
-1336193555
-1342921024
-1349279649
-1355261419
-1360858371
-1366062596
-1370866246
-1375261514
-1379240775
-1382796249
-1385920092
-1388605473
-1390797979
-1392447823
-1393520113
-1394014650
-1393926945
-1393250347
-1391976606
-1390094992
-1387592324
-1384452892
-1380658403
-1376188020
-1371019331
-1365127036
-1358485501
-1351118865
-1343054451
-1334324922
-1324969699
-1314999811
-1304405012
-1293175905
-1281303119
-1268777446
-1255589906
-1241731709
-1227194272
-1211969213
-1196048362
-1179423759
-1162087663
-1144032547
-1125251113
-1105736284
-1085481219
-1064479308
-1042724180
-1020209709
-996930014.6
-972879467
-948052693.1
-922444579.7
-896050278
-868865208.4
-840885064.5
-812105818.5
-782523725.4
-752135327.5
-720937459.4
-688927252.9
-656102141.3
-622459864.6
-587998474.2
-552716337.3
-516612142.4
-479684903.7
-441933966
-403359009.5
-363960054.7
-323737467.3
-282691962.5
-240824610.5
-198136840.4
-154630445.8
-110307588.9
-65170805.03
-19223007.86
27532506.56
75092055.1
123451563.1
172606560
222552175
273283132.7
324793749
377077926.8
430129152.2
483940490.2
538504581.3
593813637.1
649859436.9
706633324
764126202.3
822328532.8
881230330.1
940821159.6
1001090134
1062025911
1123616688
1185850204
1248713733
1312194082
1376277589
1440950124
1506197080
1572003377
1638353456
1705231282
1772620336
1840503618
1908863643
1977682441
2046941554
2116622036
2186704450
2257168867
2327994866
2399161529
2470647440
2542430687
2614488854
2686799020
2759337758
2832081130
2905004680
2978083433
3051291887
3124604006
3197993212
3271432374
3344893797
3418349210
3491769748
3565125932
3638387651
3711524135
3784503924
3857294836
3929863926
4002177441
4074200769
4145898378
4217233746
4288169286
4358666254
4428684647
4498183092
4567118712
4635446985
4703121575
4770094156
4836314202
4901728769
4966282244
5029916080
5092568475
5154174102
5214663745
5273963952
5331996655
5388678801
5443921972
5497631999
5549708629
5600045196
5648528364
5695037948
5739446822
5781620960
5821419627
5858695742
5893296453
5925063922
5953836366
5979449324
6001737200
6020535021
6035680402
6047015687
6054390206
6057662623
6056703207
6051396096
6041641380
6027356990
6008480301
5984969450
5956804241
5923986839
5886541785
5844516143
5797977926
5747017275
5691743567
5632276480
5568775554
5501406929
5430270475
5355472005
5277319620
5196380665
5112652310
5026269340
4937502444
4846619179
4753863681
4659564144
4563917726
4467278322
4370266311
4272119076
4173693783
4075494236
3977630257
3879987559
3783110333
3687096421
3592167291
3498145909
3405049721
3313851700
3224207924
3136133000
3049783428
2965253141
2882626977
2802128522
2723807563
2647977991
2574208552
2502707312
2433458254
2366335004
2301278167
2238313542
2177007717
2117384686
2059382814
2002891790
1947901539
1894439153
1842380462
1791626656
1742067608
1693023728
1645060509
1598342918
1552538570
1507639149
1463659401
1420595190
1378432281
1337155965
1296779931
1257283164
1218652587
1180877955
1143948008
1107851673
1072577993
1038116307
1004456013
971586717
939498136.3
908180114.1
877622598.9
847815624.5
818749288.3
790413731.3
762799136.1
735895702.3
709693620.6
684183087.4
659354276.2
635197330.1
611702354.9
588859410.2
566658503.3
545089582.6
524142533.3
503807172.8
484073247.7
464930430.6
446368318.5
428376431.2
410944210.2
394061018.6
377716141.3
361898785.1
346598080
331803080.3
317502766.3
303686046.4
290341759
277458675.3
265025501.7
253030883.2
241463405.9
230311600.8
219563947.1
209208875.5
199234772.6
189629983.8
180382818.1
171481551.5
162914431.2
154669680.1
146735500.3
139100078
131751587.4
124678194.8
117868063.3
111309356.9
104990244.7
98898905.39
93023531.18
87352332.42
81873541.55
76575417.44
71446249.46
66474361.61
61648116.59
56955919.81
52386223.36
47927529.92
43568396.59
39297438.7
35103333.55
30974824
26900722.13
22869912.7
18871356.61
14894094.28
10927248.87
6960029.639
2981734.994
-1018244.427
-5050424.305
-9125220.937
-13252944.94
-17443814.05
-21707925.36
-26055278.9
-30495759.42
-35039138.59
-39695072.17
-44473097.64
-49382632.24
-54432970.76
-59633283.58
-64992614.93
-70519880.93
-76223867.91
-82113230.82
-88196491.55
-94482037.54
-100978120.4
-107692854.3
-114634215.3
-121810039.5
-129228022.4
-136895717.7
-144820536.4
-153009745.8
-161470469.1
-170209684.1
-179234222.7
-188550770.7
-198165866.6
-208085901.9
-218317119.9
-228865616
-239737337
-250938081.1
-262473497.8
-274349087.6
-286570201.8
-299142043.2
-312069665.4
-325357973.4
-339011723.5
-353035523.5
-367433833.4
-382210965.2
-397371083.6
-412918206
-428856203.4
-445188800.9
-461919577.8
-479051968.4
-496589262.9
-514534607.4
-532891005.2
-551661317.4
-570848263.4
-590454421.7
-610482231
-630933991
-651811862.8
-673117870.5
-694853901.7
-717021708.5
-739622908.5
-762658985.9
-786131292.4
-810041048.4
-834389343.7
-859177139
-884405266.8
-910074432.7
-936185216
-962738071.5
-989733330.4
-1017171201
-1045051771
-1073375008
-1102140760
-1131348758
-1160998615
-1191089832
-1221621793
-1252593770
-1284004925
-1315854307
-1348140859
-1380863414
-1414020700
-1447611338
-1481633846
-1516086640
-1550968033
-1586276239
-1622009373
-1658165451
-1694742394
-1731738027
-1769150081
-1806976194
-1845213913
-1883860695
-1922913906
-1962370827
-2002228650
-2042484483
-2083135347
-2124178184
-2165609850
-2207427123
-2249626700
-2292205201
-2335159165
-2378485060
-2422179274
-2466238124
-2510657853
-2555434631
-2600564560
-2646043670
-2691867923
-2738033213
-2784535368
-2831370150
-2878533257
-2926020322
-2973826915
-3021948548
-3070380668
-3119118665
-3168157867
-3217493549
-3267120923
-3317035151
-3367231334
-3417704523
-3468449712
-3519461846
-3570735815
-3622266459
-3674048568
-3726076882
-3778346094
-3830850847
-3883585738
-3936545317
-3989724090
-4043116517
-4096717012
-4150519950
-4204519659
-4258710428
-4313086502
-4367642088
-4422371352
-4477268419
-4532327378
-4587542279
-4642907134
-4698415918
-4754062572
-4809840999
-4865745069
-4921768615
-4977905441
-5034149312
-5090493966
-5146933105
-5203460401
-5260069497
-5316754003
-5373507502
-5430323544
-5487195655
-5544117330
-5601082039
-5658083222
-5715114295
-5772168648
-5829239646
-5886320628
-5943404910
-6000485785
-6057556521
-6114610367
-6171640546
-6228640264
-6285602702
-6342521025
-6399388375
-6456197878
-6512942638
-6569615745
-6626210269
-6682719266
-6739135772
-6795452813
-6851663395
-6907760513
-6963737149
-7019586268
-7075300828
-7130873772
-7186298034
-7241566536
-7296672193
-7351607908
-7406366580
-7460941097
-7515324342
-7569509193
-7623488521
-7677255194
-7730802076
-7784122030
-7837207915
-7890052590
-7942648913
-7994989743
-8047067941
-8098876375
-8150407909
-8201655415
-8252611767
-8303269856
-8353622569
-8403662805
-8453383473
-8502777492
-8551837791
-8600557314
-8648929016
-8696945870
-8744600863
-8791886998
-8838797299
-8885324809
-8931462590
-8977203728
-9022541332
-9067468535
-9111978497
-9156064404
-9199719472
-9242936946
-9285710103
-9328032254
-9369896744
-9411296952
-9452226297
-9492678235
-9532646265
-9572123925
-9611104799
-9649582516
-9687550752
-9725003231
-9761933727
-9798336068
-9834204134
-9869531862
-9904313246
-9938542338
-9972213253
-1.000532017e+10
-1.003785732e+10
-1.006981903e+10
-1.010119967e+10
-1.013199368e+10
-1.016219558e+10
-1.019179998e+10
-1.022080154e+10
-1.024919501e+10
-1.027697522e+10
-1.030413709e+10
-1.033067561e+10
-1.035658587e+10
-1.038186304e+10
-1.04065024e+10
-1.043049928e+10
-1.045384916e+10
-1.047654758e+10
-1.049859019e+10
-1.051997274e+10
-1.05406911e+10
-1.056074123e+10
-1.058011919e+10
-1.059882118e+10
-1.061684349e+10
-1.063418253e+10
-1.065083483e+10
-1.066679705e+10
-1.068206595e+10
-1.069663843e+10
-1.071051152e+10
-1.072368238e+10
-1.073614828e+10
-1.074790664e+10
-1.075895503e+10
-1.076929113e+10
-1.077891279e+10
-1.078781797e+10
-1.079600481e+10
-1.080347157e+10
-1.081021668e+10
-1.08162387e+10
-1.082153638e+10
-1.082610858e+10
-1.082995437e+10
-1.083307293e+10
-1.083546365e+10
-1.083712605e+10
-1.083805984e+10
-1.083826489e+10
-1.083774124e+10
-1.083648911e+10
-1.08345089e+10
-1.083180118e+10
-1.08283667e+10
-1.08242064e+10
-1.081932139e+10
-1.081371298e+10
-1.080738266e+10
-1.080033212e+10
-1.079256322e+10
-1.078407803e+10
-1.077487882e+10
-1.076496804e+10
-1.075434834e+10
-1.074302258e+10
-1.073099381e+10
-1.071826529e+10
-1.070484048e+10
-1.069072304e+10
-1.067591685e+10
-1.066042597e+10
-1.064425469e+10
-1.062740751e+10
-1.060988913e+10
-1.059170446e+10
-1.057285862e+10
-1.055335695e+10
-1.053320499e+10
-1.05124085e+10
-1.049097346e+10
-1.046890605e+10
-1.044621266e+10
-1.04228999e+10
-1.039897459e+10
-1.037444377e+10
-1.034931469e+10
-1.032359479e+10
-1.029729176e+10
-1.027041345e+10
-1.024296796e+10
-1.021496358e+10
-1.018640882e+10
-1.015731236e+10
-1.012768313e+10
-1.009753023e+10
-1.006686296e+10
-1.003569085e+10
-1.000402357e+10
-9971871044
-9939243341
-9906150738
-9872603692
-9838612844
-9804189011
-9769343185
-9734086529
-9698430372
-9662386209
-9625965689
-9589180617
-9552042947
-9514564775
-9476758336
-9438635998
-9400210255
-9361493724
-9322499133
-9283239314
-9243727206
-9203975841
-9163998333
-9123807879
-9083417736
-9042841241
-9002091731
-8961182714
-8920127491
-8878939742
-8837632864
-8796219963
-8754715892
-8713131295
-8671485478
-8629776967
-8588061628
-8546211344
-8504751134
-8462126366
-8421854258
-8378747812
-8336510338
-8296499962
-8257149517
-8198641718
-7418073531
-5345895080
-3450212006
-1688759904
-71346598.97
1396911760
2713625070
3877557225
4888910748
5749378531
6462002627
7031108701
7462201772
7761855313
7937590762
7997750157
7951363677
7808014237
7577701136
7270704459
6897452097
6468390966
5993863764
5483993004
4948573016
4396971452
3838040866
3280041247
2730573917
2196527381
1684035117
1198445474
744303589.4
325344907.6
-55499967.37
-396089788.8
-695047198.3
-951724025.5
-1166158311
-1339024130
-1471575159
-1565583157
-1623272522
-1647252098
-1640445375
-1606020251
-1547319470
-1467792771
-1370931769
-1260208460
-1139018135
-1010627468
-878128293
-744397588.9
-612064006
-483481091.9
-360707388.7
-245493262.4
-139274371.9
-43171470.1
42003876.01
115738047.3
177799244.5
228217079.5
267258535.5
295401031
313303327.4
321775002.7
321745238.1
314231595.6
300309473.9
281082837.1
257656769.7
231112331.3
202484106.5
172740753.6
142768791.3
113359734.2
85200635.8
58868006.02
34824973.14
13421506.51
-5102542.99
-20611901.35
-33068167.3
-42520330.12
-49093899.11
-52979055.49
-54418226.6
-53693467.65
-51114016.16
-47004347.56
-41693024.27
-35502582.88
-28740654.64
-21692463.78
-14614797.06
-7731482.89
-1230372.517
4738231.072
10061789.72
14664518.83
18505306.91
21574738.82
23891413.48
25497750.03
26455475.9
26840983.44
26740727.92
26246820.7
25452951.22
24450745.03
23326639.57
22159332.23
21017828.33
19960092.03
19032280.39
18268520.03
17691170.87
17311507.62
17130741.65
17141301.47
17328288.39
17671027.47
18144639.41
18721566.38
19372995.75
20070136.79
20785317.33
21492878.74
22169860.49
22796474.53
23356380.11
23836776.41
24228336.31
24525008.99
24723720.22
24824000.47
24827568.98
24737900.58
24559797.71
24298986.73
23961752.88
23554624.52
23084111.87
22556503.14
21977716.12
21353202
20687895.27
19986202.87
19252024.75
18488798.44
17699560.15
16887015.98
16053617.67
15201638.35
14333245.13
13450565.84
12555748.53
11651012.57
10738691.28
9821265.565
8901388.606
7981901.93
7065842.351
6156440.054
5257107.603
4371419.879
3503084.843
2655905.421
1833733.119
1040414.052
279728.3761
-444674.8986
-1129346.404
-1771105.749
-2367109.814
-2914917.354
-3412547.997
-3858533.91
-4251961.711
-4592504.246
-4880440.979
-5116666.421
-5302687.567
-5440609.985
-5533114.003
-5583421.916
-5595257.558
-5572799.544
-5520629.453
-5443675.976
-5347156.004
-5236513.302
-5117355.212
-4995387.543
-4876347.862
-4765937.004
-4669748.762
-4593198.029
-4541447.177
-4519331.587
-4531284.571
-4581262.838
-4672673.912
-4808306.522
-4990266.379
-5219918.585
-5497838.938
-5823775.747
-6196624.11
-6614414.073
-7074313.502
-7572646.884
-8104930.089
-8665920.795
-9249684.374
-9849673.613
-10458821.15
-11069642.44
-11674347.16
-12264956.73
-12833425.32
-13371761.59
-13872148.77
-14327060.35
-14729368.95
-15072446.45
-15350253.02
-15557413.48
-15689279.78
-15741978.76
-15712444.89
-15598438.33
-15398549.38
-15112190.95
-14739580.58
-14281714.04
-13740331.27
-13117874.3
-12417435.03
-11642688.35
-10797805.28
-9887339.138
-8916075.629
-7888821.825
-6810099.202
-5683252.106
-4509606.379
-3283326.602
)
;

boundaryField
{
    inlet
    {
        type            calculated;
        value           uniform 33912860.94;
    }
    outlet
    {
        type            calculated;
        value           uniform -2668479.603;
    }
    wall
    {
        type            empty;
    }
}


// ************************************************************************* //
