/*--------------------------------*- C++ -*----------------------------------*\
  =========                 |
  \\      /  F ield         | OpenFOAM: The Open Source CFD Toolbox
   \\    /   O peration     | Website:  https://openfoam.org
    \\  /    A nd           | Version:  7
     \\/     M anipulation  |
\*---------------------------------------------------------------------------*/
FoamFile
{
    version     2.0;
    format      ascii;
    class       volScalarField;
    location    "0.000558243009";
    object      ddt0(rho,h);
}
// * * * * * * * * * * * * * * * * * * * * * * * * * * * * * * * * * * * * * //

dimensions      [1 -1 -3 0 0 0 0];

internalField   nonuniform List<scalar> 
1500
(
73959766.74
149813554.8
212594045.9
220452495.1
179209166.6
120975943.5
70809708.59
36682009.87
15852195.52
3077743.864
-5650596.902
-12461409.84
-18264600.47
-23328639.22
-27675744.02
-31244717.61
-33965827.31
-35787878.31
-36686311.05
-36664139.46
-35749463.46
-33991710.42
-31457638.79
-28227587.61
-24392159.54
-20049335.54
-15301940.27
-10255381.22
-5015631.015
312537.0855
5627034.043
10829643.16
15826926.59
20530903.21
24859591.19
28737532.31
32096401.24
34875782.21
37024138.74
38499949.47
39272937.25
39325280.34
38652666.83
37265051.77
35186998.87
32457520.99
29129381.99
25267870.18
20949098.85
16257925.47
11285606.07
6127311.736
879633.5405
-4361811.722
-9504584.265
-14461366.38
-19151611.88
-23502884.88
-27451892.29
-30945230.16
-33939869.93
-36403408.48
-38314105.22
-39660721.52
-40442170.9
-40666983.58
-40352587.81
-39524413.65
-38214829.1
-36461930.68
-34308222.21
-31799228.32
-28982099.96
-25904274.98
-22612258.1
-19150578.73
-15560977.44
-11881853.4
-8147986.294
-4390527.497
-637233.3203
3087101.074
6760063.512
10360964.47
13870158.38
17268407.02
20536337.14
23654032.3
26600785.44
29355026.5
31894424.89
34196156.06
36237310.92
37995419.33
39449054.53
40578482.33
41366317.25
41798149.28
41863107.89
41554333.43
40869331.69
39810194.32
38383675.43
36601122.85
34478271.75
32034915.27
29294475.8
26283503.79
23031134.41
19568534.04
15928364.07
12144286.05
8250524.244
4281494.161
271497.6497
-3745524.576
-7736194.642
-11667873.08
-15508826.01
-19228401.38
-22797227.9
-26187443.45
-29372954.99
-32329722.57
-35036055.95
-37472907.11
-39624139.31
-41476754.18
-43021060.38
-44250771.63
-45163028.29
-45758342.75
-46040475.27
-46016252.5
-45695345
-45090020.86
-44214893.57
-43086678.66
-41723969.32
-40147036.08
-38377648.42
-36438910.84
-34355099.25
-32151480.62
-29854097.44
-27489497.52
-25084394.71
-22665250.85
-20257777.51
-17886363.94
-15573449.07
-13338863.55
-11199176.42
-9167087.506
-7250908.801
-5454179.091
-3775452.143
-2208290.966
-741490.6969
640461.5377
1956695.917
3229060.187
4481049.257
5736615.857
7018925.388
8349125.888
9745207.212
11221020.99
12785526.47
14442314.38
16189444
18019608.03
19920616.74
21876169.5
23866859.13
25871334.65
27867535.81
29833903.55
31750471.61
33599755.35
35367368.51
37042324.15
38617005.15
40086820.01
41449588.96
42704732.73
43852353.1
44892303.34
45823345.86
46642481.64
47344516.19
47921900.15
48364852.84
48661750.2
48799735.99
48765498.03
48546146.32
48130130.32
47508141.41
46673957.26
45625196.75
44363960.64
42897333.46
41237715.72
39402941.43
37416121.57
35305141.68
33101740.37
30840110.59
28555003.65
26279377.2
24041709.72
21863201.13
19755173.83
17717067.38
15735462.56
13784559.81
11828453.57
9825386.909
7733938.59
5520802.956
3169499.313
689031.3613
-1878745.573
-4454450.975
-6920606.172
-9126390.36
-10898561.03
-12058779.67
-12446810.41
-11948169.28
-10523879.15
-8239141.566
-5287081.987
-2003395.596
1132201.406
3511222.415
4430766.136
3147771.524
-1048074.131
-8746324.072
-20318577.96
-35820385.43
-54901988.28
-76740061.16
-99999250.71
-122842232.1
-142972481.4
-157798765.8
-164278898.4
-161635774.1
-161556141.6
-161329021.6
-160965568.5
-160518407
-160003516.1
-159426807.8
-158790478
-158096318.7
-157344732.3
-156535612.9
-155668395.1
-154742342.2
-153756688.5
-152710701.6
-151603703
-150435073.5
-149204235.9
-147910645.4
-146553778.5
-145133130.8
-143648216.5
-142098560.1
-140483704.4
-138803204.4
-137056641.5
-135243605.5
-133363711.3
-131416586.9
-129401888.2
-127319283.4
-125168467.4
-122949152.8
-120661073.7
-118303991
-115877682.4
-113381950.7
-110816624.8
-108181554.3
-105476613.8
-102701704.5
-99856752.3
-96941709.83
-93956552.72
-90901287.86
-87775948
-84580590.69
-81315305.05
-77980209.18
-74575446.28
-71101193.34
-67557654.06
-63945065.96
-60263692.78
-56513832.44
-52695813.99
-48809998.98
-44856780.96
-40836585.08
-36749870.07
-32597131.23
-28378892.91
-24095718.76
-19748202.83
-15336978.18
-10862708.3
-6326097.549
-1727884.457
2931158.126
7650215.848
12428441.74
17264949.42
22158817.06
27109079.45
32114740.69
37174758.36
42288058.85
47453524.54
52670001.56
57936293.85
63251167.92
68613350.15
74021523.72
79474339.88
84970398.73
90508269.18
96086472.45
101703493.3
107357776.7
113047722.6
118771692.1
124528006.3
130314942.9
136130740.3
141973595.5
147841662.2
153733057.3
159645852.8
165578081.8
171527735.2
177492763.1
183471077.7
189460544.6
195458996.4
201464218.7
207473959.2
213485929.5
219497796.2
225507187.9
231511695.1
237508868
243496218.2
249471221.1
255431310.6
261373885.8
267296306
273195898
279069943.5
284915697.9
290730375
296511155.9
302255185.3
307959574.8
313621403.1
319237712.5
324805519.4
330321800.5
335783508.3
341187559
346530843.1
351810221
357022523.2
362164554.3
367233088.6
372224878.6
377136651.7
381965105.8
386706920
391358749.3
395917223.4
400378957.6
404740542.9
408998553.9
413149542.8
417190051.3
421116599.1
424925697.4
428613839.1
432177504.5
435613165.7
438917281.9
442086306.4
445116680.1
448004841.8
450747221.7
453340249.1
455780349.3
458063944.2
460187460.1
462147321.5
463939956.6
465561799.4
467009285.4
468278864
469366988.7
470270121.6
470984743.1
471507341
471834422
471962507.2
471888135.2
471607869.3
471118288.6
470415998.3
469497629.3
468359839.3
466999311.4
465412763.8
463596944.4
461548633
459264650.6
456741852.1
453977132.1
450967427.8
447709721.9
444201037.5
440438450.9
436419082.7
432140109.4
427598758.4
422792311.6
417718112.2
412373559.4
406756117.5
400863312.2
394692735.2
388242048.6
381508983.2
374491342.2
367187003.9
359593924.9
351710138.8
343533763.8
335062995.9
326296125
317231524.3
307867657.3
298203083.1
288236455.3
277966522.2
267392138.5
256512252.6
245325926.5
233832322.3
222030716.5
209920496.8
197501161.4
184772329.6
171733738.5
158385249
144726842.9
130758630.4
116480851.7
101893878.6
86998216.16
71794506.98
56283534.48
40466221.54
24343636.09
7916996.543
-8812332.832
-25842835.59
-43172837.52
-60800510.39
-78723862.08
-96940740.34
-115448827
-134245635.5
-153328510.1
-172694620.6
-192340960
-212264344.5
-232461409
-252928603.4
-273662191.3
-294658249.4
-315912659.7
-337421108.7
-359179091.2
-381181895.1
-403424609.6
-425902120.4
-448609103.8
-471540028.1
-494689154.1
-518050532.8
-541617998.2
-565385173.2
-589345454
-613491979.2
-637817557.7
-662315025.5
-686976421.8
-711733545
-736703761.4
-761981351.8
-787678905
-813649392.1
-839900765.9
-866438302.6
-893263560.8
-920376604
-947776012
-975459055.5
-1003421717
-1031658016
-1060157345
-1088922348
-1118136359
-1147569392
-1177164890
-1206858899
-1236536328
-1266170618
-1295782740
-1325363479
-1354903063
-1384391544
-1413818712
-1443174152
-1472447264
-1501627254
-1530703117
-1559663641
-1588497387
-1617192696
-1645737687
-1674120257
-1702328084
-1730348637
-1758169170
-1785776739
-1813158193
-1840300188
-1867189186
-1893811460
-1920153100
-1946200015
-1971937943
-1997352446
-2022428927
-2047152626
-2071508629
-2095481872
-2119057152
-2142219126
-2164952322
-2187241145
-2209069883
-2230422719
-2251283727
-2271636898
-2291466134
-2310755268
-2329488062
-2347648234
-2365219456
-2382185374
-2398529616
-2414235813
-2429287609
-2443668682
-2457362761
-2470353645
-2482625229
-2494161520
-2504946674
-2514965018
-2524201078
-2532639630
-2540265716
-2547064705
-2553022332
-2558124749
-2562358585
-2565711011
-2568169807
-2569723444
-2570361169
-2570073105
-2568850357
-2566685135
-2563570887
-2559502449
-2554476212
-2548490313
-2541544838
-2533642057
-2524786686
-2514986176
-2504251032
-2492595184
-2480036383
-2466596657
-2452302811
-2437186991
-2421287307
-2404648532
-2387322887
-2369370898
-2350862365
-2331877443
-2312507823
-2292858075
-2273047103
-2253209799
-2233498832
-2214086667
-2195167757
-2176960997
-2159712400
-2143698034
-2129227260
-2116646255
-2106341835
-2098745632
-2094338583
-2093655738
-2097291434
-2105904722
-2120225111
-2141058488
-2169293193
-2205906123
-2251968679
-2308652390
-2377233968
-2459099376
-2555746581
-2668786390
-2799940778
-2951037845
-3124002541
-3320841963
-3543624044
-3794448022
-4075405152
-4388530910
-4735729183
-5118709421
-5538879551
-5997233697
-6494218388
-7029574548
-7602185190
-8209864171
-8849177091
-9515239804
-1.020152891e+10
-1.089971312e+10
-1.159952179e+10
-1.228866781e+10
-1.295284418e+10
-1.357581233e+10
-1.41395975e+10
-1.462480161e+10
-1.501103665e+10
-1.52774673e+10
-1.540345339e+10
-1.536924852e+10
-1.515672352e+10
-1.475006193e+10
-1.413637277e+10
-1.330620739e+10
-1.225385694e+10
-1.09775242e+10
-9479280278
-7764829877
-5843249901
-3726464385
-1429011923
1032181118
3637642979
6364987741
9188950018
1.208307302e+10
1.502618648e+10
1.817187953e+10
2.132867046e+10
2.554099614e+10
2.901475057e+10
3.137373023e+10
3.049133589e+10
3.475838905e+10
3.796733321e+10
4.050912378e+10
4.258954917e+10
4.42775413e+10
4.580381707e+10
4.67158449e+10
4.7299435e+10
4.748886611e+10
4.760803063e+10
4.634693299e+10
4.421957393e+10
4.339301025e+10
4.267914474e+10
4.116097517e+10
4.11121165e+10
4.047480662e+10
4.023881391e+10
3.988054678e+10
4.016152628e+10
4.081669145e+10
4.176381527e+10
4.267270243e+10
4.338188187e+10
4.381242898e+10
4.382209884e+10
4.249620627e+10
4.190770908e+10
4.092825642e+10
4.011934737e+10
3.935688846e+10
3.866599081e+10
3.805927948e+10
3.749951872e+10
3.673319477e+10
3.488786236e+10
3.307518788e+10
3.123337023e+10
2.925693237e+10
2.738502047e+10
2.604105828e+10
2.529381377e+10
2.507892829e+10
2.524015039e+10
2.357706524e+10
2.205953396e+10
2.167803626e+10
2.09972909e+10
2.015770459e+10
1.926683177e+10
1.839002432e+10
1.756052968e+10
1.674251807e+10
1.60165311e+10
1.533178513e+10
1.468329509e+10
1.406639294e+10
1.347694934e+10
1.291172828e+10
1.236831681e+10
1.184496064e+10
1.134038603e+10
1.085369939e+10
1.03841182e+10
9931012487
9493828406
9072044658
8665097664
8272589829
7893947639
7528645531
7176197081
6836083534
6507808504
6190887490
5884851743
5589247742
5303639894
5027610511
4760760029
4502707260
4253088297
4011556235
3777781205
3551448563
3332258882
3119926829
2914180666
2714761444
2521422073
2333926801
2152050660
1975578723
1804305241
1638033834
1476575942
1319751370
1167387064
1019316886
875381578.7
735427840.1
599308182.4
466880711.7
338008513.1
212559924.3
90407406.19
-28571646.29
-144496412.8
-257481741.1
-367639105.4
-475076043.3
-579897508.1
-682204697.8
-782096505.9
-879668495.8
-975013829.3
-1068223322
-1159385069
-1248585152
-1335907507
-1421433800
-1505243960
-1587416099
-1668026113
-1747148729
-1824856666
-1901221175
-1976312270
-2050197901
-2122945266
-2194619830
-2265285854
-2335006301
-2403842949
-2471856500
-2539106287
-2605650713
-2671546852
-2736792223
-2801557883
-2865829120
-2929682187
-2993157342
-3056306846
-3119180229
-3181827237
-3244295696
-3306633676
-3368887756
-3431103704
-3493326356
-3555600054
-3617967750
-3680472034
-3743154528
-3806056185
-3869216616
-3932675358
-3996470752
-4060640254
-4125220945
-4190248820
-4255759099
-4321786373
-4388364514
-4455526383
-4523304593
-4591730243
-4660834468
-4730647236
-4801197837
-4872515050
-4944626727
-5017560112
-5091341295
-5165996596
-5241550930
-5318028510
-5395453081
-5473847725
-5553234619
-5633635427
-5715071295
-5797562403
-5881128122
-5965787749
-6051559502
-6138460879
-6226509193
-6315720427
-6406110581
-6497694685
-6590487282
-6684501998
-6779752156
-6876250601
-6974008924
-7073038933
-7173351334
-7274956230
-7377863209
-7482081624
-7587619675
-7694485249
-7802685991
-7912228481
-8023118790
-8135363116
-8248966022
-8363932538
-8480266496
-8597971616
-8717050879
-8837506638
-8959341066
-9082555721
-9207151638
-9333128918
-9460488175
-9589228569
-9719349319
-9850849074
-9983725748
-1.01179774e+10
-1.025360096e+10
-1.039059343e+10
-1.052895092e+10
-1.066866955e+10
-1.080974473e+10
-1.095217136e+10
-1.109594444e+10
-1.124105794e+10
-1.13875056e+10
-1.153528111e+10
-1.168437724e+10
-1.18347869e+10
-1.198650208e+10
-1.21395148e+10
-1.229381648e+10
-1.244939813e+10
-1.260625067e+10
-1.27643646e+10
-1.292372969e+10
-1.308433571e+10
-1.324617223e+10
-1.340922799e+10
-1.357349183e+10
-1.373895195e+10
-1.390559652e+10
-1.407341325e+10
-1.424238936e+10
-1.441251211e+10
-1.458376818e+10
-1.475614436e+10
-1.492962632e+10
-1.510420027e+10
-1.527985185e+10
-1.545656609e+10
-1.563432836e+10
-1.581312337e+10
-1.599293553e+10
-1.617374913e+10
-1.635554812e+10
-1.653831649e+10
-1.672203728e+10
-1.690669402e+10
-1.709226972e+10
-1.727874704e+10
-1.746610843e+10
-1.765433613e+10
-1.784341263e+10
-1.803331925e+10
-1.822403781e+10
-1.841554977e+10
-1.860783624e+10
-1.880087814e+10
-1.899465626e+10
-1.918915132e+10
-1.938434356e+10
-1.958021337e+10
-1.977674027e+10
-1.997390454e+10
-2.017168559e+10
-2.037006266e+10
-2.05690154e+10
-2.076852265e+10
-2.096856329e+10
-2.116911603e+10
-2.137015967e+10
-2.157167239e+10
-2.177363253e+10
-2.197601814e+10
-2.217880715e+10
-2.238197738e+10
-2.258550636e+10
-2.278937172e+10
-2.299355068e+10
-2.319802052e+10
-2.340275823e+10
-2.360774089e+10
-2.381294504e+10
-2.401834762e+10
-2.422392483e+10
-2.442965333e+10
-2.463550937e+10
-2.484146913e+10
-2.50475085e+10
-2.525360376e+10
-2.545973021e+10
-2.566586404e+10
-2.587198063e+10
-2.607805538e+10
-2.628406392e+10
-2.648998143e+10
-2.669578302e+10
-2.690144381e+10
-2.710693895e+10
-2.731224316e+10
-2.751733134e+10
-2.772217829e+10
-2.792675852e+10
-2.813104682e+10
-2.833501722e+10
-2.85386446e+10
-2.874190315e+10
-2.894476703e+10
-2.914721043e+10
-2.934920759e+10
-2.955073248e+10
-2.975175926e+10
-2.99522616e+10
-3.015221348e+10
-3.03515888e+10
-3.05503615e+10
-3.074850453e+10
-3.094599252e+10
-3.114279841e+10
-3.133889617e+10
-3.153425919e+10
-3.172886095e+10
-3.192267489e+10
-3.211567463e+10
-3.230783335e+10
-3.249912463e+10
-3.268952165e+10
-3.287899793e+10
-3.30675267e+10
-3.325508116e+10
-3.344163475e+10
-3.362716078e+10
-3.381163244e+10
-3.399502302e+10
-3.417730605e+10
-3.435845425e+10
-3.45384416e+10
-3.471724101e+10
-3.489482581e+10
-3.5071225e+10
-3.524629971e+10
-3.542008006e+10
-3.559253936e+10
-3.576366264e+10
-3.59334003e+10
-3.610173805e+10
-3.626864839e+10
-3.643410563e+10
-3.659808341e+10
-3.676055547e+10
-3.692149542e+10
-3.708087753e+10
-3.723867552e+10
-3.73948636e+10
-3.75494158e+10
-3.770230636e+10
-3.785350942e+10
-3.800299964e+10
-3.815075137e+10
-3.829673943e+10
-3.844093822e+10
-3.858332275e+10
-3.872386801e+10
-3.886254914e+10
-3.899934122e+10
-3.913421975e+10
-3.926716008e+10
-3.939813816e+10
-3.952712958e+10
-3.965411032e+10
-3.977905663e+10
-3.990194486e+10
-4.002275138e+10
-4.01414531e+10
-4.025802671e+10
-4.037244957e+10
-4.048469862e+10
-4.059475177e+10
-4.070258642e+10
-4.080818084e+10
-4.091151302e+10
-4.101256143e+10
-4.111130493e+10
-4.120772233e+10
-4.130179276e+10
-4.13934961e+10
-4.148281163e+10
-4.156971972e+10
-4.165420061e+10
-4.173623499e+10
-4.181580385e+10
-4.189288844e+10
-4.196747031e+10
-4.203953149e+10
-4.210905429e+10
-4.217602117e+10
-4.22404154e+10
-4.230221986e+10
-4.236141868e+10
-4.241799604e+10
-4.247193635e+10
-4.252322422e+10
-4.257184528e+10
-4.261778519e+10
-4.266103016e+10
-4.270156663e+10
-4.273938192e+10
-4.277446321e+10
-4.280679845e+10
-4.283637652e+10
-4.286318566e+10
-4.28872158e+10
-4.290845645e+10
-4.292689837e+10
-4.294253224e+10
-4.295534933e+10
-4.296534187e+10
-4.297250242e+10
-4.297682372e+10
-4.297829955e+10
-4.297692418e+10
-4.297269236e+10
-4.296559921e+10
-4.295564089e+10
-4.294281388e+10
-4.292711526e+10
-4.290854292e+10
-4.288709531e+10
-4.286277122e+10
-4.283557062e+10
-4.280549374e+10
-4.277254156e+10
-4.273671591e+10
-4.269801879e+10
-4.265645371e+10
-4.261202414e+10
-4.256473451e+10
-4.251459021e+10
-4.246159683e+10
-4.240576126e+10
-4.234709053e+10
-4.228559306e+10
-4.222127729e+10
-4.21541531e+10
-4.208423081e+10
-4.20115215e+10
-4.193603689e+10
-4.185778978e+10
-4.177679373e+10
-4.169306267e+10
-4.160661194e+10
-4.151745738e+10
-4.142561541e+10
-4.133110337e+10
-4.123394007e+10
-4.113414407e+10
-4.103173552e+10
-4.092673493e+10
-4.081916437e+10
-4.070904558e+10
-4.059640208e+10
-4.048125812e+10
-4.036363824e+10
-4.024356853e+10
-4.012107502e+10
-3.999618579e+10
-3.986892857e+10
-3.973933259e+10
-3.960742788e+10
-3.947324511e+10
-3.933681586e+10
-3.919817247e+10
-3.905734826e+10
-3.891437743e+10
-3.876929466e+10
-3.862213582e+10
-3.847293721e+10
-3.832173639e+10
-3.816857132e+10
-3.801348097e+10
-3.785650507e+10
-3.769768398e+10
-3.753705911e+10
-3.737467209e+10
-3.72105663e+10
-3.704478462e+10
-3.68773718e+10
-3.670837208e+10
-3.653783173e+10
-3.63657967e+10
-3.619231399e+10
-3.601743136e+10
-3.584119712e+10
-3.566365979e+10
-3.548486931e+10
-3.530487523e+10
-3.512372867e+10
-3.494148014e+10
-3.475818174e+10
-3.457388497e+10
-3.438864265e+10
-3.420245025e+10
-3.401547393e+10
-3.38277109e+10
-3.363921489e+10
-3.345003934e+10
-3.326023854e+10
-3.30698544e+10
-3.287896477e+10
-3.268761234e+10
-3.249585306e+10
-3.23037428e+10
-3.211134081e+10
-3.191870788e+10
-3.172590842e+10
-3.153301985e+10
-3.134011308e+10
-3.114730646e+10
-3.095465449e+10
-3.076246311e+10
-3.057034309e+10
-3.03805277e+10
-3.018707653e+10
-3.00041688e+10
-2.981162014e+10
-2.962448602e+10
-2.944859297e+10
-2.927827569e+10
-2.903573178e+10
-2.588731563e+10
-1.771675746e+10
-1.028938497e+10
-3419608276
2854651370
8516654029
1.356015127e+10
1.79832927e+10
2.178995036e+10
2.49898465e+10
2.759794941e+10
2.963418658e+10
3.112300773e+10
3.209292533e+10
3.257602034e+10
3.26074238e+10
3.222478104e+10
3.146770762e+10
3.037724397e+10
2.899531585e+10
2.736420782e+10
2.552605574e+10
2.352236348e+10
2.139355076e+10
1.91785344e+10
1.691434913e+10
1.463580995e+10
1.23752194e+10
1.016212085e+10
8023100538
5981637406
4058001666
2269201216
628974252.7
-852173498.9
-2166889645
-3310857065
-4282640082
-5083498728
-5717175766
-6189660059
-6508931388
-6684691177
-6728083948
-6651414150
-6467862891
-6191209119
-5835559225
-5415089155
-4943802349
-4435306735
-3902613445
-3357959302
-2812654979
-2276959891
-1759984333
-1269619400
-812493782.5
-393957114.3
-18088264.85
312273068.8
595473367
830973395.3
1019260022
1161744431
1260649674
1318890631
1339949208
1327747770
1286523535
1220706556
1134803627
1033290270
920512558.1
800600273.8
677392486.8
554376436.6
434639970.2
320837757.6
215170936.2
119379663.6
34747695.92
-37882043.49
-98082225.37
-145807633.8
-181354969.6
-205317579.5
-218536720.7
-222050944.6
-217045161.1
-204800784.9
-186648238.6
-163922964.8
-137925831.8
-109888686.9
-80945589.91
-52110020.66
-24258161.38
1881785.022
25734565.72
46877479.26
65035205.34
80070477.8
91971334.79
100835711
106854138.6
110291358.2
111467533.7
110739804.3
108484712.7
105082078.4
100900679.7
96286089.07
91550833.34
86966966.29
82761083.55
79111634.45
76148391.86
73953837.84
72566176.76
71983660.86
72169893.33
73059806.26
74565953.17
76584845.66
79003070.76
81702962.88
84567681.49
87485510.22
90353370.06
93079475.04
95585133.64
97805767.29
99691191.55
101205287.3
102325141.9
103039793
103348700.8
103260052.4
102789002.8
101955938.4
100784869.1
99301948.19
97534210.18
95508541.87
93250848.27
90785488.81
88134874.23
85319295.76
82356869.55
79263641.36
76053759.13
72739733.39
69332730.1
65842877.73
62279579.11
58651817.61
54968427.26
51238335.36
47470781.36
43675486.64
39862790.87
36043760.22
32230237.5
28434876.08
24671122.14
20953156.18
17295809.58
13714429.82
10224716.91
6842518.761
3583610.276
463429.4888
-2503187.529
-5302295.942
-7921121.192
-10348338.47
-12574334.34
-14591442.15
-16394139.12
-17979218.9
-19345903.39
-20495918.74
-21433520.61
-22165473.51
-22700984.05
-23051596.82
-23231053.57
-23255122.52
-23141397.13
-22909088.93
-22578790.15
-22172224.81
-21712007.45
-21221369.05
-20723894.56
-20243242.45
-19802864.55
-19425710.94
-19133933.24
-18948585.47
-18889307.81
-18974021.54
-19218625.58
-19636694.34
-20239200.23
-21034248.66
-22026851.06
-23218730.52
-24608174.38
-26189940.19
-27955212.96
-29891636.37
-31983393.8
-34211369.9
-36553367.71
-38984388.68
-41476972.79
-44001586.15
-46527052.73
-49021015.39
-51450426.28
-53782043.69
-55982932.98
-58020960.17
-59865260.89
-61486688.36
-62858216.79
-63955299.45
-64756180.15
-65242139.93
-65397687.91
-65210687.6
-64672427.62
-63777631.17
-62524418.25
-60914229.52
-58951708.03
-56644558.48
-54003370.89
-51041405.41
-47774321
-44219826.98
-40397224.01
-36326804.89
-32029012.22
-27523243.47
-22824359.19
-17939652.44
-12849035.75
)
;

boundaryField
{
    inlet
    {
        type            calculated;
        value           uniform 2663816.771;
    }
    outlet
    {
        type            calculated;
        value           uniform -10421184.13;
    }
    wall
    {
        type            empty;
    }
}


// ************************************************************************* //
