/*--------------------------------*- C++ -*----------------------------------*\
  =========                 |
  \\      /  F ield         | OpenFOAM: The Open Source CFD Toolbox
   \\    /   O peration     | Website:  https://openfoam.org
    \\  /    A nd           | Version:  7
     \\/     M anipulation  |
\*---------------------------------------------------------------------------*/
FoamFile
{
    version     2.0;
    format      ascii;
    class       volScalarField;
    location    "0.000558243009";
    object      ddt0(rho,C2H3);
}
// * * * * * * * * * * * * * * * * * * * * * * * * * * * * * * * * * * * * * //

dimensions      [1 -3 -1 0 0 0 0];

internalField   nonuniform List<scalar> 
1500
(
1.335156085e-24
9.213176756e-23
1.659931938e-22
1.646598979e-22
1.262006277e-22
8.199342711e-23
4.637369842e-23
2.222294718e-23
7.253278019e-24
-1.960680243e-24
-8.124021589e-24
-1.28081682e-23
-1.673682096e-23
-2.015885529e-23
-2.311364668e-23
-2.556596776e-23
-2.746635736e-23
-2.877494764e-23
-2.946950596e-23
-2.954720281e-23
-2.902363286e-23
-2.793061556e-23
-2.631352248e-23
-2.422849931e-23
-2.173976497e-23
-1.891706712e-23
-1.58333253e-23
-1.256248202e-23
-9.177597195e-24
-5.749233314e-24
-2.344179281e-24
9.754550766e-25
4.152772582e-24
7.136286301e-24
9.879856092e-24
1.234246792e-23
1.448796956e-23
1.628486743e-23
1.770626661e-23
1.872999982e-23
1.933895464e-23
1.952157015e-23
1.927243898e-23
1.859292821e-23
1.749172558e-23
1.598522017e-23
1.409764275e-23
1.186091496e-23
9.314185276e-24
6.503057789e-24
3.478548337e-24
2.95823226e-25
-2.987209709e-24
-6.311380806e-24
-9.617734438e-24
-1.284893391e-23
-1.595054111e-23
-1.887213213e-23
-2.156822588e-23
-2.399901842e-23
-2.613092702e-23
-2.793695526e-23
-2.939689536e-23
-3.049738394e-23
-3.123182558e-23
-3.160019405e-23
-3.160871827e-23
-3.126945702e-23
-3.059976453e-23
-2.962165126e-23
-2.836104836e-23
-2.684699047e-23
-2.511073899e-23
-2.318487499e-23
-2.110239739e-23
-1.889586473e-23
-1.659662122e-23
-1.423414336e-23
-1.183553617e-23
-9.425200197e-24
-7.024676186e-24
-4.652664375e-24
-2.325200543e-24
-5.596264859e-26
2.143326949e-24
4.262442914e-24
6.292182415e-24
8.223912239e-24
1.004916972e-23
1.175934458e-23
1.334545886e-23
1.47980545e-23
1.610719036e-23
1.726254245e-23
1.825359591e-23
1.906991317e-23
1.970145852e-23
2.013895826e-23
2.037427482e-23
2.040077345e-23
2.021366065e-23
1.981027663e-23
1.919032521e-23
1.835602952e-23
1.731220538e-23
1.606624873e-23
1.462803905e-23
1.300976651e-23
1.122569248e-23
9.291861164e-24
7.225778568e-24
5.046079104e-24
2.772197929e-24
4.240654952e-25
-1.978162666e-24
-4.414333677e-24
-6.864478969e-24
-9.308953522e-24
-1.172853953e-23
-1.410452537e-23
-1.641877262e-23
-1.865378339e-23
-2.079278038e-23
-2.28198065e-23
-2.471984851e-23
-2.647898447e-23
-2.808454912e-23
-2.952530845e-23
-3.079163209e-23
-3.187564993e-23
-3.277138082e-23
-3.347482261e-23
-3.398399575e-23
-3.429893705e-23
-3.442164436e-23
-3.435597763e-23
-3.41075244e-23
-3.36834414e-23
-3.309228517e-23
-3.234384293e-23
-3.144897566e-23
-3.041948033e-23
-2.926797585e-23
-2.800781175e-23
-2.665299631e-23
-2.521813415e-23
-2.371836214e-23
-2.216927092e-23
-2.058679706e-23
-1.898707413e-23
-1.738623281e-23
-1.580014496e-23
-1.424411162e-23
-1.273250195e-23
-1.127835482e-23
-9.892962637e-24
-8.585460423e-24
-7.362447383e-24
-6.227669653e-24
-5.181792167e-24
-4.222284856e-24
-3.343443531e-24
-2.536558516e-24
-1.790235804e-24
-1.090865493e-24
-4.232228382e-25
2.2882297e-25
8.815257761e-25
1.550445904e-24
2.249646e-24
2.990946915e-24
3.783291326e-24
4.632257649e-24
5.53976053e-24
6.50396264e-24
7.519409652e-24
8.57738558e-24
9.6664685e-24
1.07732515e-23
1.188317941e-23
1.298144e-23
1.405384221e-23
1.508761205e-23
1.607204192e-23
1.699893966e-23
1.786284101e-23
1.866097004e-23
1.939295443e-23
2.006032852e-23
2.066587477e-23
2.121287323e-23
2.170433494e-23
2.214229618e-23
2.25272423e-23
2.28577134e-23
2.313012257e-23
2.333879315e-23
2.347619808e-23
2.35333656e-23
2.350040256e-23
2.336708474e-23
2.312346722e-23
2.276048181e-23
2.227050495e-23
2.164789556e-23
2.088951564e-23
1.999524761e-23
1.896851563e-23
1.781679514e-23
1.655206493e-23
1.519111898e-23
1.375562104e-23
1.227176208e-23
1.076937981e-23
9.280425766e-24
7.836725567e-24
6.467074533e-24
5.193829432e-24
4.029294791e-24
2.972335038e-24
2.005750479e-24
1.095011129e-24
1.88928769e-25
-7.772572523e-25
-1.876103942e-24
-3.179513149e-24
-4.747986837e-24
-6.618377533e-24
-8.791332933e-24
-1.12199856e-23
-1.380168566e-23
-1.63746456e-23
-1.872123285e-23
-2.057925241e-23
-2.166192056e-23
-2.168635048e-23
-2.040930962e-23
-1.76678674e-23
-1.342143737e-23
-7.790787758e-24
-1.088962816e-24
6.161066178e-24
1.322697488e-23
1.918948336e-23
2.298927796e-23
2.349686453e-23
1.960531829e-23
1.033507195e-23
-5.018396468e-24
-2.682592541e-23
-4.067043065e-23
-4.304411497e-23
-4.506106509e-23
-4.69981319e-23
-4.893462902e-23
-5.088798106e-23
-5.286211504e-23
-5.485873887e-23
-5.687874334e-23
-5.89225166e-23
-6.09900251e-23
-6.308100906e-23
-6.519508945e-23
-6.733187551e-23
-6.949097648e-23
-7.167200971e-23
-7.387461719e-23
-7.60984438e-23
-7.834313502e-23
-8.060832595e-23
-8.289364817e-23
-8.51987332e-23
-8.75231894e-23
-8.98666257e-23
-9.222862944e-23
-9.460880887e-23
-9.70067371e-23
-9.942199944e-23
-1.018541582e-22
-1.043027951e-22
-1.067674642e-22
-1.092477345e-22
-1.117431611e-22
-1.142532982e-22
-1.167777123e-22
-1.193159536e-22
-1.218675787e-22
-1.244321554e-22
-1.270092442e-22
-1.295984125e-22
-1.32199239e-22
-1.348113083e-22
-1.374342169e-22
-1.40067563e-22
-1.427109711e-22
-1.453640772e-22
-1.480265264e-22
-1.506979936e-22
-1.533781778e-22
-1.560667916e-22
-1.587635883e-22
-1.614683438e-22
-1.641808787e-22
-1.669010391e-22
-1.69628722e-22
-1.723638701e-22
-1.751064787e-22
-1.778565979e-22
-1.806143356e-22
-1.833798674e-22
-1.861534506e-22
-1.889354072e-22
-1.917261597e-22
-1.945262111e-22
-1.97336177e-22
-2.001567677e-22
-2.029888266e-22
-2.058333195e-22
-2.086913428e-22
-2.115641563e-22
-2.144531659e-22
-2.173599559e-22
-2.202862888e-22
-2.232341417e-22
-2.262056829e-22
-2.292033327e-22
-2.322297335e-22
-2.352878056e-22
-2.383807398e-22
-2.415120346e-22
-2.446855021e-22
-2.479052957e-22
-2.511759421e-22
-2.545023302e-22
-2.578897927e-22
-2.613440723e-22
-2.648713973e-22
-2.684784768e-22
-2.721725389e-22
-2.759613781e-22
-2.798533676e-22
-2.838574972e-22
-2.879834167e-22
-2.922414603e-22
-2.966426897e-22
-3.01198938e-22
-3.059228297e-22
-3.10827846e-22
-3.159283485e-22
-3.212396312e-22
-3.267779616e-22
-3.32560615e-22
-3.386059473e-22
-3.449333991e-22
-3.515635859e-22
-3.585183163e-22
-3.658206355e-22
-3.734948977e-22
-3.815667933e-22
-3.900633959e-22
-3.990132153e-22
-4.084462388e-22
-4.183939667e-22
-4.288894735e-22
-4.399674288e-22
-4.516641523e-22
-4.640176292e-22
-4.770675838e-22
-4.908554556e-22
-5.054244739e-22
-5.208196568e-22
-5.370878439e-22
-5.542777043e-22
-5.724397476e-22
-5.916263429e-22
-6.118916873e-22
-6.332918448e-22
-6.558846881e-22
-6.797299183e-22
-7.048890063e-22
-7.314251757e-22
-7.594033596e-22
-7.888901404e-22
-8.199537062e-22
-8.526637528e-22
-8.870914214e-22
-9.23309224e-22
-9.613909098e-22
-1.001411378e-21
-1.043446561e-21
-1.087573256e-21
-1.133869022e-21
-1.182411998e-21
-1.233280758e-21
-1.286554098e-21
-1.342310887e-21
-1.40062982e-21
-1.461589246e-21
-1.525266924e-21
-1.591739777e-21
-1.661083667e-21
-1.733373114e-21
-1.808681061e-21
-1.88707856e-21
-1.96863452e-21
-2.053415389e-21
-2.141484862e-21
-2.23290359e-21
-2.32772883e-21
-2.426014162e-21
-2.527809152e-21
-2.633159017e-21
-2.742104333e-21
-2.854680651e-21
-2.970918231e-21
-3.090841697e-21
-3.21446968e-21
-3.341814565e-21
-3.472882133e-21
-3.607671285e-21
-3.746173753e-21
-3.888373778e-21
-4.034247911e-21
-4.183764703e-21
-4.336884477e-21
-4.493559121e-21
-4.653731891e-21
-4.817337193e-21
-4.984300455e-21
-5.154537999e-21
-5.327956874e-21
-5.504454832e-21
-5.683920241e-21
-5.86623205e-21
-6.051259781e-21
-6.238863611e-21
-6.428894355e-21
-6.62119364e-21
-6.815593969e-21
-7.011918929e-21
-7.209983385e-21
-7.409593677e-21
-7.610547945e-21
-7.812636377e-21
-8.015641615e-21
-8.219339099e-21
-8.423497467e-21
-8.627879047e-21
-8.832240332e-21
-9.036332493e-21
-9.239901934e-21
-9.442690932e-21
-9.644438172e-21
-9.844879572e-21
-1.004374875e-20
-1.024077794e-20
-1.043569869e-20
-1.062824259e-20
-1.081814214e-20
-1.100513163e-20
-1.118894784e-20
-1.136933119e-20
-1.154602633e-20
-1.171878341e-20
-1.188735874e-20
-1.205151592e-20
-1.221102688e-20
-1.236567274e-20
-1.251524491e-20
-1.26595461e-20
-1.279839145e-20
-1.293160953e-20
-1.305904338e-20
-1.318055167e-20
-1.329600978e-20
-1.340531089e-20
-1.350836707e-20
-1.360511048e-20
-1.369549451e-20
-1.377949472e-20
-1.385711031e-20
-1.392836509e-20
-1.399330864e-20
-1.405201761e-20
-1.410459673e-20
-1.415118021e-20
-1.419193283e-20
-1.422705123e-20
-1.425676513e-20
-1.428133859e-20
-1.430107121e-20
-1.431629959e-20
-1.432739855e-20
-1.43347824e-20
-1.433890639e-20
-1.43402682e-20
-1.433940906e-20
-1.433691537e-20
-1.43334204e-20
-1.432960528e-20
-1.432620099e-20
-1.432398992e-20
-1.432380726e-20
-1.432654288e-20
-1.433314326e-20
-1.434461426e-20
-1.436202842e-20
-1.438656009e-20
-1.441965883e-20
-1.446389964e-20
-1.45268346e-20
-1.463631071e-20
-1.488536117e-20
-1.541126872e-20
-1.612075488e-20
-1.714830864e-20
-1.875808986e-20
-2.031051334e-20
-2.168384128e-20
-2.284245535e-20
-2.376011411e-20
-2.441480003e-20
-2.478594064e-20
-2.485301265e-20
-2.459736903e-20
-2.400479895e-20
-2.3081604e-20
-2.203355095e-20
-2.18563652e-20
-2.17645221e-20
-2.165546737e-20
-2.16272692e-20
-2.190843373e-20
-2.253158399e-20
-2.335315141e-20
-2.428623971e-20
-2.530570241e-20
-2.640802644e-20
-2.759579922e-20
-2.88732627e-20
-3.024520007e-20
-3.171668294e-20
-3.329302411e-20
-3.497977876e-20
-3.678275292e-20
-3.870801784e-20
-4.076192459e-20
-4.295111885e-20
-4.528255832e-20
-4.776353104e-20
-5.040167389e-20
-5.320499432e-20
-5.618189136e-20
-5.934118091e-20
-6.269211943e-20
-6.624443263e-20
-7.000834365e-20
-7.399460436e-20
-7.821452907e-20
-8.268002909e-20
-8.74036518e-20
-9.239862015e-20
-9.767887655e-20
-1.032591281e-19
-1.091548973e-19
-1.153825728e-19
-1.219594669e-19
-1.289038746e-19
-1.362351378e-19
-1.439737144e-19
-1.521412504e-19
-1.607606604e-19
-1.698562113e-19
-1.794536156e-19
-1.895801286e-19
-2.002646605e-19
-2.115378934e-19
-2.234324148e-19
-2.359828636e-19
-2.492260979e-19
-2.632013831e-19
-2.779506096e-19
-2.935185465e-19
-3.099531407e-19
-3.27305875e-19
-3.456321991e-19
-3.649920593e-19
-3.854505515e-19
-4.07078735e-19
-4.299546626e-19
-4.541646755e-19
-4.798050701e-19
-5.069842254e-19
-5.358253512e-19
-5.664700444e-19
-5.990829022e-19
-6.338575296e-19
-6.710243723e-19
-7.108609509e-19
-7.537052498e-19
-7.999732519e-19
-8.501819277e-19
-9.049793969e-19
-9.651845206e-19
-1.03183891e-18
-1.106275273e-18
-1.190207261e-18
-1.28584764e-18
-1.396063749e-18
-1.524582105e-18
-1.676257746e-18
-1.857428991e-18
-2.076384778e-18
-2.34398066e-18
-2.674451019e-18
-3.086480572e-18
-3.604618671e-18
-4.261147208e-18
-5.098549255e-18
-6.172774064e-18
-7.557559001e-18
-9.350155942e-18
-1.167892648e-17
-1.471342782e-17
-1.86778237e-17
-2.386874284e-17
-3.067909865e-17
-3.962991839e-17
-5.141296036e-17
-6.694790423e-17
-8.745928689e-17
-1.145802842e-16
-1.504931266e-16
-1.981197049e-16
-2.613812397e-16
-3.455534304e-16
-4.577542695e-16
-6.076171931e-16
-8.082246549e-16
-1.077409896e-15
-1.43958275e-15
-1.928306572e-15
-2.589960212e-15
-3.488981219e-15
-4.71543643e-15
-6.396045322e-15
-8.710327142e-15
-1.191440058e-14
-1.637650295e-14
-2.263071703e-14
-3.145901025e-14
-4.401778918e-14
-6.203557696e-14
-8.812597471e-14
-1.262901826e-13
-1.827360285e-13
-2.672342409e-13
-3.954018306e-13
-5.926129722e-13
-9.008242556e-13
-1.39069851e-12
-2.183551783e-12
-3.491807768e-12
-5.694938595e-12
-9.484441771e-12
-1.614509539e-11
-2.810956081e-11
-5.006674016e-11
-9.120845753e-11
-1.698378273e-10
-3.229255964e-10
-6.261011777e-10
-1.235720879e-09
-2.477585054e-09
-5.033512431e-09
-1.033028416e-08
-2.133795076e-08
-4.41717158e-08
-9.121420747e-08
-1.870021944e-07
-3.789700961e-07
-7.566012879e-07
-1.485400161e-06
-2.868133977e-06
-5.457722015e-06
-1.026696666e-05
-1.916174275e-05
-3.566474729e-05
-6.688494575e-05
-0.0001282295887
-0.0002529609998
-0.0005081090084
-0.001020422067
-0.002020896272
-0.003915966764
-0.007387693538
-0.01351541137
-0.02387753966
-0.04065737379
-0.06625802785
-0.1040393013
-0.1570625408
-0.2296559737
-0.308426915
-0.3998298378
-0.5023015204
-0.6094695199
-0.7192129787
-0.8346571236
-0.9574249798
-1.066666183
-1.133975469
-1.128233893
-0.8494175701
-0.5762755441
0.9433629152
3.751595504
8.404411899
14.66657776
24.18028701
36.18152665
50.17446593
64.22737825
80.03041009
94.70668181
106.90923
115.809612
121.1767085
122.6893491
120.5862778
115.2586991
107.3226485
98.1370972
87.9348644
77.0561791
65.98003008
55.57908711
46.3127156
38.37340829
31.1987291
24.9880921
19.67768356
15.68149804
12.26272805
9.438839566
7.110925802
4.813189927
3.429288666
2.385535947
1.452362741
0.8095557161
0.3727032035
0.0797984647
-0.1125723458
-0.2345056079
-0.3038243923
-0.3408953787
-0.353394768
-0.3492371799
-0.3342013738
-0.3124848675
-0.2871040832
-0.2601898247
-0.2332104669
-0.2071423782
-0.1826011646
-0.1599389072
-0.1393220498
-0.1207878735
-0.1042867804
-0.08971350617
-0.07692979475
-0.06578058718
-0.05610530349
-0.04774548496
-0.04054975228
-0.03437681466
-0.02909708534
-0.02459332717
-0.02076063188
-0.01750596372
-0.01474743317
-0.01241341941
-0.01044162464
-0.008778117766
-0.007376405184
-0.006196552817
-0.005204373225
-0.004370684667
-0.00367064403
-0.00308315226
-0.002590328797
-0.002177050256
-0.001830547939
-0.001540058492
-0.001296522092
-0.001092322737
-0.0009210655873
-0.0007773866851
-0.0006567908275
-0.0005555137904
-0.0004704055329
-0.0003988314063
-0.0003385887605
-0.000287836678
-0.0002450368689
-0.0002089040296
-0.0001783642086
-0.0001525199307
-0.0001306210157
-0.000112040186
-9.625269452e-05
-8.281932381e-05
-7.137220622e-05
-6.160300422e-05
-5.325306119e-05
-4.610519669e-05
-3.997687277e-05
-3.47145026e-05
-3.018870992e-05
-2.629038019e-05
-2.292736994e-05
-2.002176384e-05
-1.750758716e-05
-1.53288968e-05
-1.34381872e-05
-1.179505838e-05
-1.036510157e-05
-9.118966584e-06
-8.031580033e-06
-7.081489569e-06
-6.250312966e-06
-5.522274921e-06
-4.883817002e-06
-4.323268728e-06
-3.830569895e-06
-3.39703586e-06
-3.015158692e-06
-2.678438684e-06
-2.381241184e-06
-2.118674898e-06
-1.886488158e-06
-1.680980775e-06
-1.498928099e-06
-1.337516647e-06
-1.194288732e-06
-1.067094939e-06
-9.540533382e-07
-8.535143515e-07
-7.640305477e-07
-6.843305043e-07
-6.13296279e-07
-5.499438994e-07
-4.934064916e-07
-4.429196203e-07
-3.978085799e-07
-3.574773173e-07
-3.2139882e-07
-2.89106734e-07
-2.601880507e-07
-2.342767124e-07
-2.110480139e-07
-1.902137322e-07
-1.715178471e-07
-1.547328053e-07
-1.396561611e-07
-1.261077288e-07
-1.139270422e-07
-1.029710756e-07
-9.311230837e-08
-8.423695566e-08
-7.624342959e-08
-6.904099193e-08
-6.254857062e-08
-5.669365798e-08
-5.141139544e-08
-4.664373134e-08
-4.233870543e-08
-3.84497396e-08
-3.493511822e-08
-3.175742004e-08
-2.88830946e-08
-2.628202399e-08
-2.392719275e-08
-2.179434025e-08
-1.98616288e-08
-1.810947998e-08
-1.6520299e-08
-1.507824465e-08
-1.376907043e-08
-1.257994359e-08
-1.149932353e-08
-1.051680111e-08
-9.62301739e-09
-8.809542686e-09
-8.068767575e-09
-7.393837672e-09
-6.778560243e-09
-6.217360491e-09
-5.705202603e-09
-5.237526142e-09
-4.810226747e-09
-4.419593469e-09
-4.062271129e-09
-3.735224827e-09
-3.435705474e-09
-3.161243341e-09
-2.909573705e-09
-2.678675753e-09
-2.466702222e-09
-2.271978863e-09
-2.092994342e-09
-1.928378315e-09
-1.776876668e-09
-1.637356342e-09
-1.508805434e-09
-1.390285559e-09
-1.28094105e-09
-1.18000833e-09
-1.086782879e-09
-1.000624827e-09
-9.209506188e-10
-8.472287186e-10
-7.789833358e-10
-7.15767992e-10
-6.57180659e-10
-6.028588942e-10
-5.524641017e-10
-5.056982783e-10
-4.622738421e-10
-4.219370734e-10
-3.844498484e-10
-3.49597986e-10
-3.171818184e-10
-2.870195162e-10
-2.589478627e-10
-2.32819045e-10
-2.084893662e-10
-1.858297537e-10
-1.647210929e-10
-1.450509748e-10
-1.267273631e-10
-1.096501969e-10
-9.373538761e-11
-7.890351188e-11
-6.50829138e-11
-5.220649997e-11
-4.020967268e-11
-2.903743991e-11
-1.863249762e-11
-8.945943248e-12
6.615098402e-14
8.447408009e-12
1.623814629e-11
2.347881403e-11
3.020173231e-11
3.644150542e-11
4.222309741e-11
4.757605203e-11
5.252847813e-11
5.710366133e-11
6.132270269e-11
6.520960186e-11
6.878018712e-11
7.205576736e-11
7.505455658e-11
7.779197867e-11
8.028281206e-11
8.254340761e-11
8.458867538e-11
8.64325162e-11
8.808362126e-11
8.955531915e-11
9.085738675e-11
9.199746948e-11
9.298679109e-11
9.383358007e-11
9.454793889e-11
9.51377453e-11
9.560959791e-11
9.597213846e-11
9.622742621e-11
9.638387382e-11
9.645021838e-11
9.643158662e-11
9.633220487e-11
9.61539441e-11
9.590779326e-11
9.559873699e-11
9.522604631e-11
9.479698227e-11
9.431374351e-11
9.378207284e-11
9.320329074e-11
9.257991e-11
9.191367671e-11
9.121005171e-11
9.047203431e-11
8.970181032e-11
8.890130746e-11
8.807561819e-11
8.722759629e-11
8.635652122e-11
8.546482445e-11
8.45544614e-11
8.362671966e-11
8.268471387e-11
8.173011977e-11
8.076345754e-11
7.978566411e-11
7.879805387e-11
7.780234308e-11
7.680105145e-11
7.57933769e-11
7.478283406e-11
7.376861021e-11
7.275109282e-11
7.17319547e-11
7.071445124e-11
6.969781466e-11
6.868303536e-11
6.766974604e-11
6.665937068e-11
6.56526306e-11
6.464867082e-11
6.365078404e-11
6.265751872e-11
6.166932571e-11
6.068770649e-11
5.971208205e-11
5.874434566e-11
5.778387361e-11
5.68298582e-11
5.588369854e-11
5.494633423e-11
5.401668e-11
5.30977164e-11
5.218779464e-11
5.128620138e-11
5.039305454e-11
4.950992703e-11
4.863663577e-11
4.777158364e-11
4.691879609e-11
4.607564817e-11
4.524262545e-11
4.442022425e-11
4.360907867e-11
4.280793393e-11
4.201685736e-11
4.123601785e-11
4.046487301e-11
3.970352738e-11
3.895431144e-11
3.821654333e-11
3.748810148e-11
3.677100444e-11
3.606480032e-11
3.536868764e-11
3.468356716e-11
3.400805801e-11
3.334190302e-11
3.268739032e-11
3.204324357e-11
3.140879406e-11
3.078554912e-11
3.01713228e-11
2.956683294e-11
2.897227037e-11
2.838826657e-11
2.781384694e-11
2.72503503e-11
2.669522871e-11
2.614894763e-11
2.561178626e-11
2.508361717e-11
2.456534483e-11
2.405741798e-11
2.355795604e-11
2.306761198e-11
2.258518291e-11
2.211113795e-11
2.164531531e-11
2.118755258e-11
2.073777105e-11
2.029612437e-11
1.986278488e-11
1.943830838e-11
1.902193527e-11
1.861363775e-11
1.821367523e-11
1.782075897e-11
1.74352603e-11
1.705699867e-11
1.668586723e-11
1.632182342e-11
1.596525773e-11
1.561520341e-11
1.527377193e-11
1.493849e-11
1.460869272e-11
1.428528192e-11
1.39679778e-11
1.365709492e-11
1.335269584e-11
1.305502903e-11
1.276259794e-11
1.247544059e-11
1.219415364e-11
1.191824003e-11
1.164814651e-11
1.13846666e-11
1.112611812e-11
1.087319864e-11
1.0624951e-11
1.038181061e-11
1.014402795e-11
9.911044114e-12
9.682921746e-12
9.459442053e-12
9.240855641e-12
9.026918816e-12
8.817020768e-12
8.612430695e-12
8.412761353e-12
8.216849224e-12
8.025179369e-12
7.837112244e-12
7.65294287e-12
7.472951052e-12
7.296904967e-12
7.124790768e-12
6.956339764e-12
6.791138998e-12
6.62969623e-12
6.471337647e-12
6.316904009e-12
6.16581814e-12
6.018393883e-12
5.873909176e-12
5.733118831e-12
5.596051356e-12
5.461244031e-12
5.329230677e-12
5.200072183e-12
5.073915517e-12
4.950672956e-12
4.830683585e-12
4.712830915e-12
4.597262141e-12
4.484497211e-12
4.374144392e-12
4.266718446e-12
4.162206805e-12
4.060473404e-12
3.960576649e-12
3.86277823e-12
3.767123889e-12
3.673839033e-12
3.582318758e-12
3.492608772e-12
3.404850072e-12
3.319488663e-12
3.236116168e-12
3.154963801e-12
3.075716775e-12
2.998083039e-12
2.922158625e-12
2.847974375e-12
2.776398648e-12
2.706593361e-12
2.638552839e-12
2.57155278e-12
2.505942422e-12
2.441638759e-12
2.379496599e-12
2.31890289e-12
2.259853982e-12
2.201651826e-12
2.144790764e-12
2.089631758e-12
2.035569657e-12
1.982368567e-12
1.930251316e-12
1.879639621e-12
1.830156456e-12
1.782240924e-12
1.735619637e-12
1.690206256e-12
1.646102202e-12
1.603251674e-12
1.56112146e-12
1.520432787e-12
1.480442438e-12
1.441261996e-12
1.402886775e-12
1.36540528e-12
1.329220821e-12
1.293591161e-12
1.258687643e-12
1.224770199e-12
1.191775565e-12
1.159348285e-12
1.127794804e-12
1.097501164e-12
1.068023602e-12
1.039167096e-12
1.011206296e-12
9.839367976e-13
9.574302869e-13
9.314275953e-13
9.059845823e-13
8.811787755e-13
8.569416236e-13
8.333194887e-13
8.106267172e-13
7.888775656e-13
7.676327561e-13
7.469978141e-13
7.268131768e-13
7.067422087e-13
6.86956159e-13
6.677523319e-13
6.49518416e-13
6.313492517e-13
6.140658938e-13
5.971902393e-13
5.808972399e-13
5.652055779e-13
5.498552753e-13
5.348597997e-13
5.20307565e-13
5.06313277e-13
4.927157948e-13
4.794708481e-13
4.667946082e-13
4.547048763e-13
4.431958008e-13
4.320244669e-13
4.210720649e-13
4.102860182e-13
3.998625538e-13
3.896169828e-13
3.795444452e-13
3.697646585e-13
3.598249874e-13
3.490374828e-13
3.375684359e-13
3.244869732e-13
3.089260765e-13
1.492683351e-13
1.705753498e-13
1.133968263e-13
7.40370041e-14
4.874987801e-14
3.082614109e-14
1.975476214e-14
1.422677826e-14
8.486761344e-15
4.466106081e-15
4.206134583e-15
9.958546752e-16
-9.829448728e-17
-6.633024155e-17
3.472959975e-16
7.93745856e-17
-4.746680355e-16
1.197683296e-16
1.437852353e-16
4.408874534e-16
-1.144993209e-16
1.639313308e-17
-3.224902957e-16
3.809376493e-17
-9.856764402e-17
2.235548689e-18
1.70536545e-17
-2.350318873e-17
-1.460500815e-17
-4.938517066e-18
-3.732892022e-18
-9.996876093e-18
-1.016617016e-17
5.265866466e-17
4.03065727e-17
1.565713012e-17
-2.797229007e-17
-3.713873574e-18
6.955081454e-18
1.054594286e-18
-1.536250117e-17
-2.374340776e-18
1.942487245e-18
8.862579588e-19
-2.138180946e-17
-3.418178906e-17
4.194450602e-18
6.03941261e-18
-3.004141202e-17
3.187429118e-18
1.608699388e-18
-5.578133404e-18
-1.683350165e-17
1.020156854e-16
1.092954406e-16
-4.482249969e-17
-3.300720625e-17
4.041598711e-17
7.943586115e-20
-1.444467688e-17
-2.158289435e-17
-3.518515183e-17
1.21190455e-17
-2.070142201e-17
-1.371422449e-17
-5.507443132e-18
5.109234329e-18
-2.894754365e-19
-2.933449045e-19
9.292867364e-19
1.995654942e-18
2.537872954e-19
3.273718696e-18
4.260488095e-18
-1.602262283e-17
-8.392889369e-18
3.12903471e-17
-9.371378882e-18
8.260109964e-18
-1.144876133e-17
2.168497043e-17
-9.868421277e-18
-1.317564736e-17
2.939188011e-18
4.987231642e-18
-7.405931539e-18
-1.475498784e-18
-5.693628618e-18
8.288491338e-19
-2.050338129e-18
2.278808471e-18
-9.698413171e-19
1.219311154e-18
-1.171933334e-18
9.719739937e-19
6.465582701e-19
-1.126506889e-18
-6.264986894e-19
-2.756337128e-19
3.849523284e-19
1.118968191e-19
-2.12375944e-19
8.11358526e-20
-2.297258606e-19
-3.86666053e-19
-6.440440381e-19
-3.547227089e-19
-7.739213892e-19
5.6237611e-19
-3.556882011e-19
5.79482775e-20
6.152153697e-20
-1.835074387e-19
2.107911427e-19
-3.23085098e-19
1.582277774e-20
8.096875139e-20
6.601655875e-20
2.128676412e-19
1.009976166e-19
-1.477482235e-19
1.895802328e-19
-1.584366888e-19
2.924236248e-19
4.366330677e-19
2.798198089e-19
-1.08482188e-19
2.330400157e-19
2.487636347e-19
9.623189394e-20
1.788062315e-19
-2.297868174e-19
9.234108813e-19
2.011335073e-20
2.822561002e-20
1.868291619e-19
-3.637743369e-19
2.824168984e-20
3.451976105e-19
7.084957242e-19
-4.260473877e-19
3.843752045e-19
-2.539001587e-19
6.2096411e-19
5.848744891e-20
-1.071030261e-18
-5.873002198e-19
9.913650268e-19
4.108007494e-19
6.229494248e-19
3.328889963e-19
3.340504095e-19
-1.16430335e-18
-9.428626253e-19
-5.794229271e-19
-9.224334599e-20
2.354446421e-19
-2.678887478e-19
1.183072516e-18
-1.855282014e-19
4.652648495e-19
-1.2487096e-19
7.07111538e-19
3.800238799e-19
-3.663589153e-19
-4.998868208e-19
-4.094713004e-19
7.61834676e-19
2.563595197e-19
6.453665445e-19
-6.374629178e-19
-3.039087617e-19
2.291615073e-19
-1.384390377e-19
-2.063977846e-19
-9.18939556e-19
-3.013823378e-19
1.950658133e-19
4.463179655e-19
1.537273019e-19
5.774480079e-19
1.79944396e-20
7.259420234e-20
1.787727071e-19
1.498126976e-18
-1.715227825e-19
3.94165715e-19
-4.949183719e-20
3.057172794e-19
-1.518604941e-19
7.30221196e-19
5.645109747e-19
-1.230452427e-19
7.135736851e-19
2.459451261e-19
3.597744461e-19
-1.407321564e-19
1.342290155e-19
1.648825175e-19
-5.735735505e-19
-3.165862725e-19
-4.414345753e-19
4.633212896e-21
-2.380768816e-19
-5.389330144e-19
-5.147380994e-19
-2.093973104e-19
3.889417372e-19
2.58186471e-19
-9.073336015e-20
4.996352756e-19
2.989844416e-19
-1.647155839e-19
2.053274753e-19
1.3012782e-19
6.756010713e-19
6.698949076e-20
1.869497838e-19
-4.898974442e-20
3.08085436e-20
1.942058139e-19
1.009932392e-19
8.180123913e-20
1.015767571e-19
9.139353878e-20
2.705528037e-19
2.670268172e-19
2.053503544e-19
-2.508506263e-19
9.413312925e-20
2.581948952e-20
-1.196766696e-20
2.948600156e-19
4.340444563e-19
2.638761501e-19
-3.845264581e-19
1.766827924e-19
-3.261607144e-19
-7.40671997e-20
3.014218526e-20
-9.677889562e-19
-2.673098691e-19
-6.359991673e-19
-1.779002972e-19
-3.423371495e-19
-5.696309076e-19
-1.464783826e-18
-7.991802713e-19
3.91183928e-19
-4.127049234e-19
)
;

boundaryField
{
    inlet
    {
        type            calculated;
        value           uniform 0;
    }
    outlet
    {
        type            calculated;
        value           uniform -4.12690136e-19;
    }
    wall
    {
        type            empty;
    }
}


// ************************************************************************* //
