/*--------------------------------*- C++ -*----------------------------------*\
  =========                 |
  \\      /  F ield         | OpenFOAM: The Open Source CFD Toolbox
   \\    /   O peration     | Website:  https://openfoam.org
    \\  /    A nd           | Version:  7
     \\/     M anipulation  |
\*---------------------------------------------------------------------------*/
FoamFile
{
    version     2.0;
    format      ascii;
    class       volScalarField;
    location    "0.000558243009";
    object      ddt0(rho,C3H5-A);
}
// * * * * * * * * * * * * * * * * * * * * * * * * * * * * * * * * * * * * * //

dimensions      [1 -3 -1 0 0 0 0];

internalField   nonuniform List<scalar> 
1500
(
-3.624997451e-16
-1.110845888e-15
-1.693876972e-15
-1.740071817e-15
-1.354388293e-15
-8.510633642e-16
-4.49254962e-16
-2.049598824e-16
-8.30142073e-17
-3.142873193e-17
-1.293644896e-17
-7.776429804e-18
-7.26005596e-18
-8.096440795e-18
-9.158637106e-18
-1.009461672e-17
-1.079933888e-17
-1.124266733e-17
-1.141866067e-17
-1.133103087e-17
-1.098918297e-17
-1.040694941e-17
-9.60193065e-18
-8.594960924e-18
-7.409595122e-18
-6.071618417e-18
-4.608599574e-18
-3.04950584e-18
-1.424381887e-18
2.35921148e-19
1.899994731e-18
3.536137154e-18
5.112671612e-18
6.598350736e-18
7.962865696e-18
9.177462997e-18
1.021565577e-17
1.105398912e-17
1.167281972e-17
1.205705059e-17
1.219676151e-17
1.208768048e-17
1.173145205e-17
1.113567356e-17
1.031368924e-17
9.284151307e-18
8.070374802e-18
6.699528117e-18
5.201710634e-18
3.608972801e-18
1.954333776e-18
2.708444578e-19
-1.409265745e-18
-3.055331237e-18
-4.638866978e-18
-6.134056847e-18
-7.518118285e-18
-8.771554761e-18
-9.878310349e-18
-1.082584008e-17
-1.160510818e-17
-1.221052203e-17
-1.263980758e-17
-1.289382681e-17
-1.297633872e-17
-1.289370327e-17
-1.265453183e-17
-1.226929023e-17
-1.174986602e-17
-1.110911602e-17
-1.036041461e-17
-9.517225478e-18
-8.592719954e-18
-7.599463197e-18
-6.54918538e-18
-5.452647639e-18
-4.319606579e-18
-3.15887171e-18
-1.978443555e-18
-7.857139852e-19
4.122943305e-19
1.608673954e-18
2.796388838e-18
3.968063103e-18
5.115820114e-18
6.231185166e-18
7.305058908e-18
8.327763256e-18
9.289156588e-18
1.017880985e-17
1.098623249e-17
1.170113448e-17
1.231370942e-17
1.281492292e-17
1.319679175e-17
1.345263866e-17
1.357731131e-17
1.356735425e-17
1.342112694e-17
1.313886266e-17
1.272266752e-17
1.217646155e-17
1.150586756e-17
1.071805604e-17
9.821557252e-18
8.82605222e-18
7.742155811e-18
6.581203541e-18
5.355052031e-18
4.075901068e-18
2.756141309e-18
1.408228261e-18
4.458064008e-20
-1.322502682e-18
-2.680913608e-18
-4.018801559e-18
-5.324643093e-18
-6.587320535e-18
-7.796212897e-18
-8.941299941e-18
-1.001327716e-17
-1.100367679e-17
-1.190498842e-17
-1.27107713e-17
-1.341575007e-17
-1.40158874e-17
-1.450842817e-17
-1.489191252e-17
-1.516615779e-17
-1.533221207e-17
-1.539228422e-17
-1.534965702e-17
-1.520859087e-17
-1.497422495e-17
-1.465248186e-17
-1.424998009e-17
-1.377395541e-17
-1.323219079e-17
-1.263295069e-17
-1.198491431e-17
-1.129710047e-17
-1.057877653e-17
-9.839344306e-18
-9.088197026e-18
-8.334545588e-18
-7.58721358e-18
-6.854406358e-18
-6.1434622e-18
-5.46059848e-18
-4.810667423e-18
-4.196939418e-18
-3.620931475e-18
-3.08229898e-18
-2.578804219e-18
-2.106374465e-18
-1.659253553e-18
-1.230248893e-18
-8.110647184e-19
-3.927104548e-19
3.403760126e-20
4.781445394e-19
9.478244125e-19
1.450077051e-18
1.990284345e-18
2.571892652e-18
3.19620551e-18
3.862300542e-18
4.567079657e-18
5.305449839e-18
6.070623084e-18
6.854514606e-18
7.648210082e-18
8.442466198e-18
9.228207034e-18
9.996976859e-18
1.074131319e-17
1.145501264e-17
1.213326896e-17
1.277267601e-17
1.337109987e-17
1.39274383e-17
1.444129477e-17
1.49126036e-17
1.534124699e-17
1.572670487e-17
1.606777393e-17
1.6362386e-17
1.660754184e-17
1.679936842e-17
1.693329163e-17
1.700430839e-17
1.700733189e-17
1.693758044e-17
1.679097787e-17
1.656453731e-17
1.625670164e-17
1.586762143e-17
1.539935517e-17
1.485598075e-17
1.424360631e-17
1.357027469e-17
1.284574798e-17
1.208116481e-17
1.12885647e-17
1.048027895e-17
9.668207088e-18
8.863009846e-18
8.073280412e-18
7.304775218e-18
6.559810668e-18
5.836944851e-18
5.13106164e-18
4.433953607e-18
3.735460909e-18
3.025154418e-18
2.294468584e-18
1.539096979e-18
7.61368045e-19
-2.776266405e-20
-8.075102363e-19
-1.547259385e-18
-2.208115212e-18
-2.746234945e-18
-3.117979024e-18
-3.286677709e-18
-3.23053316e-18
-2.950893081e-18
-2.479880537e-18
-1.886184836e-18
-1.277746773e-18
-8.001454554e-19
-6.297300439e-19
-9.609564946e-19
-1.987952566e-18
-3.881035389e-18
-6.759668878e-18
-1.06641067e-17
-1.552864266e-17
-2.115988325e-17
-2.722370754e-17
-3.324453907e-17
-3.862032847e-17
-4.265632783e-17
-4.462106839e-17
-4.382768509e-17
-3.974591469e-17
-3.21339409e-17
-2.117366809e-17
-7.413958233e-18
8.681678846e-18
1.873919848e-17
2.002737093e-17
2.110491452e-17
2.213462088e-17
2.315262286e-17
2.41651014e-17
2.516947024e-17
2.616221167e-17
2.713983783e-17
2.809979055e-17
2.90401765e-17
2.995938167e-17
3.085596284e-17
3.172831465e-17
3.257476249e-17
3.339356486e-17
3.418279734e-17
3.494045936e-17
3.566445047e-17
3.635261042e-17
3.700265389e-17
3.761213514e-17
3.817858822e-17
3.869937141e-17
3.917180527e-17
3.959289906e-17
3.995970499e-17
4.026901207e-17
4.0517566e-17
4.070179311e-17
4.081809739e-17
4.086258007e-17
4.083121886e-17
4.071978047e-17
4.052372771e-17
4.023839729e-17
3.985884787e-17
3.937982168e-17
3.879585605e-17
3.810118602e-17
3.728970805e-17
3.635500556e-17
3.529030555e-17
3.408853347e-17
3.274214829e-17
3.124322886e-17
2.958348269e-17
2.775410031e-17
2.574578989e-17
2.35488309e-17
2.115289423e-17
1.85471512e-17
1.572012193e-17
1.265979288e-17
9.353444678e-18
5.787681011e-18
1.948377999e-18
-2.179337589e-18
-6.611109219e-18
-1.136342066e-17
-1.645368736e-17
-2.190014762e-17
-2.772209567e-17
-3.393974856e-17
-4.057445417e-17
-4.76485669e-17
-5.518568917e-17
-6.321059517e-17
-7.174927228e-17
-8.082911428e-17
-9.047879815e-17
-1.007284673e-16
-1.116097095e-16
-1.231557636e-16
-1.354013353e-16
-1.483829552e-16
-1.621387475e-16
-1.76708739e-16
-1.921347669e-16
-2.084606607e-16
-2.257322168e-16
-2.439973122e-16
-2.633060337e-16
-2.83710529e-16
-3.052654405e-16
-3.280275959e-16
-3.5205639e-16
-3.774136425e-16
-4.041637264e-16
-4.323737449e-16
-4.621134735e-16
-4.934554612e-16
-5.264751538e-16
-5.612508849e-16
-5.978639879e-16
-6.363988871e-16
-6.769430433e-16
-7.195871667e-16
-7.644251627e-16
-8.115542455e-16
-8.610749741e-16
-9.130912357e-16
-9.677104714e-16
-1.025043444e-15
-1.085204561e-15
-1.148311726e-15
-1.214486336e-15
-1.28385348e-15
-1.356541819e-15
-1.432683609e-15
-1.512414749e-15
-1.595874753e-15
-1.683206693e-15
-1.774557296e-15
-1.8700768e-15
-1.969919016e-15
-2.074241156e-15
-2.183204044e-15
-2.296971689e-15
-2.415711535e-15
-2.539594212e-15
-2.668793535e-15
-2.803486361e-15
-2.943852478e-15
-3.090074585e-15
-3.24233795e-15
-3.400830582e-15
-3.565742771e-15
-3.737267206e-15
-3.915598582e-15
-4.100933549e-15
-4.293470522e-15
-4.49340942e-15
-4.700951576e-15
-4.916299323e-15
-5.139655888e-15
-5.371225253e-15
-5.61121168e-15
-5.859819616e-15
-6.117253455e-15
-6.383717038e-15
-6.65941363e-15
-6.944545459e-15
-7.239313591e-15
-7.543917363e-15
-7.858554378e-15
-8.183419876e-15
-8.518706706e-15
-8.864604868e-15
-9.221301114e-15
-9.588978773e-15
-9.967817253e-15
-1.035799195e-14
-1.075967361e-14
-1.117302831e-14
-1.159821686e-14
-1.203539466e-14
-1.24847114e-14
-1.294631053e-14
-1.342032922e-14
-1.390689792e-14
-1.440614005e-14
-1.491817193e-14
-1.544310214e-14
-1.598103164e-14
-1.653205347e-14
-1.709625222e-14
-1.767370426e-14
-1.826447725e-14
-1.886863013e-14
-1.948621301e-14
-2.011726675e-14
-2.076182336e-14
-2.141990554e-14
-2.209152675e-14
-2.277669123e-14
-2.347539411e-14
-2.418762119e-14
-2.491334926e-14
-2.565254627e-14
-2.640517112e-14
-2.717117425e-14
-2.795049771e-14
-2.874307537e-14
-2.954883318e-14
-3.036768987e-14
-3.119955679e-14
-3.204433892e-14
-3.290193483e-14
-3.377223759e-14
-3.465513525e-14
-3.555051126e-14
-3.645824544e-14
-3.737821442e-14
-3.831029268e-14
-3.925435328e-14
-4.021026854e-14
-4.117791128e-14
-4.215715569e-14
-4.314787829e-14
-4.414995905e-14
-4.516328277e-14
-4.61877398e-14
-4.722322817e-14
-4.826965374e-14
-4.932693262e-14
-5.039499229e-14
-5.147377279e-14
-5.25632287e-14
-5.366333081e-14
-5.477406717e-14
-5.589544604e-14
-5.702749621e-14
-5.817027034e-14
-5.932384581e-14
-6.048832719e-14
-6.166384876e-14
-6.285057574e-14
-6.404870712e-14
-6.525847762e-14
-6.648016046e-14
-6.771406945e-14
-6.89605613e-14
-7.022003855e-14
-7.149295203e-14
-7.277980353e-14
-7.408114831e-14
-7.539759847e-14
-7.672982553e-14
-7.807856282e-14
-7.944460963e-14
-8.082883377e-14
-8.223217427e-14
-8.365564557e-14
-8.510033974e-14
-8.656743089e-14
-8.805817797e-14
-8.957392858e-14
-9.11161227e-14
-9.268629595e-14
-9.42860835e-14
-9.591722426e-14
-9.758156458e-14
-9.928106192e-14
-1.010177893e-13
-1.0279394e-13
-1.046118303e-13
-1.064739049e-13
-1.083827423e-13
-1.103410564e-13
-1.12351704e-13
-1.144176888e-13
-1.165421652e-13
-1.187284438e-13
-1.209799973e-13
-1.23300465e-13
-1.256936565e-13
-1.281635598e-13
-1.307143427e-13
-1.333503571e-13
-1.360761396e-13
-1.388963583e-13
-1.41816529e-13
-1.448230032e-13
-1.479413708e-13
-1.511912677e-13
-1.546023501e-13
-1.581309987e-13
-1.617827366e-13
-1.655641072e-13
-1.694819019e-13
-1.735432491e-13
-1.777556012e-13
-1.821267562e-13
-1.866648722e-13
-1.913784869e-13
-1.962764118e-13
-2.013729499e-13
-2.067559295e-13
-2.123629284e-13
-2.182028691e-13
-2.242868987e-13
-2.30606273e-13
-2.37175771e-13
-2.4402093e-13
-2.511537553e-13
-2.585863943e-13
-2.663315719e-13
-2.744024978e-13
-2.828128552e-13
-2.915768169e-13
-3.007090575e-13
-3.102247689e-13
-3.20139686e-13
-3.304700979e-13
-3.412328751e-13
-3.524454916e-13
-3.641260442e-13
-3.762932797e-13
-3.889666232e-13
-4.02166202e-13
-4.159128815e-13
-4.302282928e-13
-4.451348767e-13
-4.606559151e-13
-4.768155828e-13
-4.93638992e-13
-5.111522484e-13
-5.293825154e-13
-5.483580794e-13
-5.681084352e-13
-5.886643728e-13
-6.100580857e-13
-6.323232886e-13
-6.554953658e-13
-6.796115286e-13
-7.047110156e-13
-7.308353177e-13
-7.580284455e-13
-7.863372547e-13
-8.158118121e-13
-8.46505856e-13
-8.78477322e-13
-9.117889871e-13
-9.465092181e-13
-9.827128945e-13
-1.020482483e-12
-1.059909344e-12
-1.101095282e-12
-1.144154414e-12
-1.189215405e-12
-1.236424141e-12
-1.285946945e-12
-1.337974417e-12
-1.392726064e-12
-1.450455818e-12
-1.511458683e-12
-1.57607869e-12
-1.64471843e-12
-1.717850508e-12
-1.796031226e-12
-1.87991704e-12
-1.970284236e-12
-2.068052535e-12
-2.174313363e-12
-2.290363722e-12
-2.417746756e-12
-2.558300344e-12
-2.714215282e-12
-2.888104963e-12
-3.083088785e-12
-3.302892025e-12
-3.551965388e-12
-3.835628103e-12
-4.160239221e-12
-4.533402665e-12
-4.96421265e-12
-5.463547505e-12
-6.044421417e-12
-6.722405618e-12
-7.516132721e-12
-8.447900988e-12
-9.544398205e-12
-1.08375695e-11
-1.236565786e-11
-1.417445276e-11
-1.631878887e-11
-1.88643468e-11
-2.188981823e-11
-2.548951143e-11
-2.977649068e-11
-3.488636313e-11
-4.098185309e-11
-4.825833659e-11
-5.695054847e-11
-6.734072804e-11
-7.976853061e-11
-9.46431195e-11
-1.124579527e-10
-1.338089191e-10
-1.594166473e-10
-1.901540356e-10
-2.270803438e-10
-2.714835633e-10
-3.249332738e-10
-3.893468595e-10
-4.670728065e-10
-5.609959702e-10
-6.746712576e-10
-8.12494256e-10
-9.799202426e-10
-1.183746919e-09
-1.432481701e-09
-1.736821959e-09
-2.110287134e-09
-2.570056487e-09
-3.138086891e-09
-3.842614075e-09
-4.720181566e-09
-5.818398703e-09
-7.199709834e-09
-8.946570473e-09
-1.116858793e-08
-1.401241484e-08
-1.767551797e-08
-2.24254319e-08
-2.862682808e-08
-3.677981835e-08
-4.757447618e-08
-6.196924291e-08
-8.130443164e-08
-1.074683377e-07
-1.431427682e-07
-1.921698692e-07
-2.601064517e-07
-3.55069598e-07
-4.890389286e-07
-6.798732793e-07
-9.544412964e-07
-1.353473133e-06
-1.939041239e-06
-2.806012489e-06
-4.099454157e-06
-6.04096077e-06
-8.968456746e-06
-1.339667733e-05
-2.01099772e-05
-3.030644773e-05
-4.582399489e-05
-6.949669323e-05
-0.000105714932
-0.0001612962241
-0.0002468133929
-0.0003785671777
-0.0005814160281
-0.0008926593109
-0.001367056843
-0.002082766427
-0.00314738466
-0.004702168833
-0.006921048652
-0.009998980222
-0.01412160974
-0.01940151385
-0.02574399447
-0.03254059858
-0.03796236619
-0.03612097677
-0.01841334493
0.05074068203
0.1691908236
0.3338623274
0.4040407117
0.930606098
1.673260156
2.769829828
4.379431095
6.699219304
9.93014976
14.27898491
20.08315295
27.83307658
36.97563601
50.47231108
53.3135297
70.9243755
90.71119183
112.9266724
123.3153452
150.7267132
182.9552951
222.5999699
255.7650488
315.7948237
383.5384095
449.6509585
497.12471
506.2752396
466.0938183
393.7824385
284.7676086
173.9428843
78.71223093
6.090341983
-43.09065628
-71.6405452
-84.36461831
-85.71767372
-78.9970865
-69.49551582
-59.06388969
-48.92310073
-39.76309145
-32.07203255
-25.76170818
-20.61946857
-16.37448197
-12.69467091
-9.784708704
-7.58133161
-5.836506543
-4.470074172
-3.409720302
-2.59265898
-1.966431322
-1.48769741
-1.123862578
-0.8476302517
-0.638359781
-0.4801156598
-0.3606552404
-0.2706088777
-0.2028277902
-0.1518717311
-0.1136098932
-0.08491201208
-0.06341000209
-0.04731546242
-0.03527975837
-0.02628727867
-0.01957418398
-0.01456668578
-0.0108342504
-0.008054180559
-0.005984851794
-0.004445519196
-0.003301102715
-0.002450738501
-0.001819174946
-0.001350313838
-0.001002367224
-0.0007442295897
-0.0005527630668
-0.0004107678231
-0.0003054660652
-0.0002273706664
-0.0001694415396
-0.0001264570734
-9.454616786e-05
-7.084009244e-05
-5.321366932e-05
-4.009299399e-05
-3.031268005e-05
-2.300993802e-05
-1.754603013e-05
-1.344805765e-05
-1.036583956e-05
-8.039985229e-06
-6.278265389e-06
-4.938131176e-06
-3.913785745e-06
-3.12662532e-06
-2.518172891e-06
-2.044855143e-06
-1.674141898e-06
-1.381692409e-06
-1.149245507e-06
-9.630591884e-07
-8.127560173e-07
-6.904682354e-07
-5.902042626e-07
-5.073787506e-07
-4.384635137e-07
-3.807278345e-07
-3.320449009e-07
-2.907472128e-07
-2.555182926e-07
-2.253113429e-07
-1.992879395e-07
-1.767716477e-07
-1.572127786e-07
-1.401614844e-07
-1.252471112e-07
-1.121622674e-07
-1.006504549e-07
-9.049640737e-08
-8.151849128e-08
-7.356269078e-08
-6.649781185e-08
-6.021163276e-08
-5.460779287e-08
-4.960326114e-08
-4.512626313e-08
-4.111457281e-08
-3.751409681e-08
-3.427769451e-08
-3.13641897e-08
-2.87375388e-08
-2.636612768e-08
-2.422217495e-08
-2.228122369e-08
-2.052170564e-08
-1.892457465e-08
-1.747297767e-08
-1.615198385e-08
-1.494834671e-08
-1.385029711e-08
-1.284736405e-08
-1.193021914e-08
-1.109054115e-08
-1.032089795e-08
-9.614643333e-09
-8.965826725e-09
-8.369114133e-09
-7.819718741e-09
-7.313339922e-09
-6.846109603e-09
-6.414544987e-09
-6.015506857e-09
-5.646162732e-09
-5.303954309e-09
-4.986568598e-09
-4.691912353e-09
-4.418089375e-09
-4.163380329e-09
-3.926224796e-09
-3.705205288e-09
-3.499032988e-09
-3.306535024e-09
-3.126643099e-09
-2.95838331e-09
-2.800867049e-09
-2.65328283e-09
-2.514888966e-09
-2.385006993e-09
-2.263015751e-09
-2.148346072e-09
-2.040475984e-09
-1.938926403e-09
-1.843257233e-09
-1.753063858e-09
-1.66797397e-09
-1.587644697e-09
-1.511760015e-09
-1.440028394e-09
-1.372180678e-09
-1.307968153e-09
-1.247160801e-09
-1.189545713e-09
-1.134925652e-09
-1.083117739e-09
-1.033952267e-09
-9.872716183e-10
-9.429292795e-10
-9.00788943e-10
-8.607236908e-10
-8.226152478e-10
-7.863533031e-10
-7.518348886e-10
-7.1896381e-10
-6.876501318e-10
-6.578097001e-10
-6.293637094e-10
-6.022383065e-10
-5.763642254e-10
-5.516764526e-10
-5.281139225e-10
-5.056192351e-10
-4.841383975e-10
-4.636205859e-10
-4.440179289e-10
-4.252853029e-10
-4.073801496e-10
-3.902623032e-10
-3.738938331e-10
-3.582388978e-10
-3.432636099e-10
-3.289359123e-10
-3.152254619e-10
-3.021035229e-10
-2.895428672e-10
-2.775176838e-10
-2.660034912e-10
-2.549770598e-10
-2.444163371e-10
-2.343003786e-10
-2.246092849e-10
-2.153241405e-10
-2.06426959e-10
-1.979006306e-10
-1.897288734e-10
-1.81896188e-10
-1.743878147e-10
-1.671896939e-10
-1.60288428e-10
-1.536712469e-10
-1.473259751e-10
-1.412409999e-10
-1.354052432e-10
-1.298081337e-10
-1.24439581e-10
-1.192899516e-10
-1.143500458e-10
-1.096110766e-10
-1.050646487e-10
-1.007027393e-10
-9.651768077e-11
-9.250214263e-11
-8.864911562e-11
-8.495189654e-11
-8.140407342e-11
-7.799951207e-11
-7.473234284e-11
-7.159694828e-11
-6.858795164e-11
-6.570020554e-11
-6.292878164e-11
-6.026896028e-11
-5.771622148e-11
-5.526623559e-11
-5.29148547e-11
-5.065810478e-11
-4.849217759e-11
-4.641342346e-11
-4.441834432e-11
-4.250358695e-11
-4.066593671e-11
-3.890231123e-11
-3.720975503e-11
-3.558543377e-11
-3.402662901e-11
-3.25307333e-11
-3.109524537e-11
-2.971776574e-11
-2.8395992e-11
-2.712771512e-11
-2.591081526e-11
-2.474325801e-11
-2.362309084e-11
-2.254843966e-11
-2.151750556e-11
-2.052856157e-11
-1.957994981e-11
-1.867007842e-11
-1.77974191e-11
-1.696050424e-11
-1.61579245e-11
-1.538832653e-11
-1.465041047e-11
-1.39429279e-11
-1.326467972e-11
-1.261451413e-11
-1.199132467e-11
-1.139404846e-11
-1.082166437e-11
-1.027319136e-11
-9.747686889e-12
-9.244245308e-12
-8.761996451e-12
-8.300104147e-12
-7.857764914e-12
-7.434206616e-12
-7.028687252e-12
-6.640493703e-12
-6.268940662e-12
-5.913369439e-12
-5.573147009e-12
-5.247664922e-12
-4.936338365e-12
-4.63860521e-12
-4.353925182e-12
-4.081778888e-12
-3.821667143e-12
-3.573110052e-12
-3.335646318e-12
-3.108832528e-12
-2.892242408e-12
-2.685466186e-12
-2.488109947e-12
-2.299795028e-12
-2.120157389e-12
-1.948847086e-12
-1.785527712e-12
-1.629875857e-12
-1.481580638e-12
-1.340343166e-12
-1.20587616e-12
-1.077903423e-12
-9.561594501e-13
-8.403890201e-13
-7.303467986e-13
-6.257969457e-13
-5.265127705e-13
-4.32276354e-13
-3.428782423e-13
-2.581171094e-13
-1.777994503e-13
-1.01739243e-13
-2.975775944e-14
3.831683268e-14
1.026496386e-13
1.633993486e-13
2.207184585e-13
2.74753514e-13
3.25645326e-13
3.735292119e-13
4.185351782e-13
4.607881462e-13
5.004081244e-13
5.37510414e-13
5.722057807e-13
6.046006193e-13
6.347971318e-13
6.628934851e-13
6.889839603e-13
7.131590981e-13
7.355058645e-13
7.561077442e-13
7.750449233e-13
7.923943875e-13
8.082289788e-13
8.226218735e-13
8.356401003e-13
8.473491174e-13
8.578116462e-13
8.670870977e-13
8.752331916e-13
8.823054678e-13
8.883571586e-13
8.934393033e-13
8.976008252e-13
9.008886266e-13
9.033476612e-13
9.05021029e-13
9.059500359e-13
9.061742739e-13
9.057316805e-13
9.04658609e-13
9.0298988e-13
9.007588528e-13
8.979974713e-13
8.947363291e-13
8.910047107e-13
8.868306488e-13
8.822409708e-13
8.772613485e-13
8.71916337e-13
8.662294253e-13
8.602230691e-13
8.539187413e-13
8.473369633e-13
8.404973424e-13
8.33418611e-13
8.261186597e-13
8.186145676e-13
8.109226397e-13
8.030584307e-13
7.950367833e-13
7.868718453e-13
7.785771092e-13
7.701654273e-13
7.616490467e-13
7.530396266e-13
7.443482642e-13
7.355855191e-13
7.26761433e-13
7.178855481e-13
7.089669356e-13
7.000142045e-13
6.91035528e-13
6.820386577e-13
6.730309419e-13
6.640193426e-13
6.55010451e-13
6.460105023e-13
6.370253911e-13
6.280606866e-13
6.191216433e-13
6.102132191e-13
6.013400813e-13
5.92506624e-13
5.837169783e-13
5.749750249e-13
5.662844004e-13
5.576485126e-13
5.490705482e-13
5.405534834e-13
5.321000914e-13
5.23712954e-13
5.153944683e-13
5.07146853e-13
4.989721628e-13
4.908722876e-13
4.828489669e-13
4.749037915e-13
4.670382142e-13
4.592535548e-13
4.515510046e-13
4.439316346e-13
4.363964015e-13
4.289461512e-13
4.21581625e-13
4.143034652e-13
4.071122201e-13
4.000083471e-13
3.929922188e-13
3.86064127e-13
3.792242858e-13
3.724728368e-13
3.658098529e-13
3.592353406e-13
3.527492449e-13
3.463514522e-13
3.400417931e-13
3.338200467e-13
3.276859413e-13
3.216391599e-13
3.156793413e-13
3.098060825e-13
3.040189428e-13
2.983174441e-13
2.927010752e-13
2.871692918e-13
2.817215213e-13
2.76357162e-13
2.71075587e-13
2.658761451e-13
2.607581632e-13
2.557209474e-13
2.507637843e-13
2.458859442e-13
2.410866802e-13
2.363652314e-13
2.31720824e-13
2.271526718e-13
2.226599776e-13
2.182419355e-13
2.138977305e-13
2.096265407e-13
2.054275371e-13
2.012998866e-13
1.972427507e-13
1.932552877e-13
1.893366535e-13
1.854860017e-13
1.817024858e-13
1.779852578e-13
1.743334714e-13
1.707462807e-13
1.672228421e-13
1.637623143e-13
1.603638594e-13
1.57026643e-13
1.537498356e-13
1.505326119e-13
1.473741531e-13
1.442736457e-13
1.412302836e-13
1.382432673e-13
1.353118054e-13
1.32435115e-13
1.296124217e-13
1.268429608e-13
1.241259774e-13
1.214607274e-13
1.188464774e-13
1.162825064e-13
1.137681051e-13
1.113025776e-13
1.088852414e-13
1.065154284e-13
1.041924856e-13
1.019157756e-13
9.968467767e-14
9.749858843e-14
9.535692245e-14
9.325911367e-14
9.120461555e-14
8.919290279e-14
8.722347135e-14
8.529584025e-14
8.340955158e-14
8.156418988e-14
7.975931093e-14
7.799455003e-14
7.626955046e-14
7.4583982e-14
7.293754043e-14
7.132995009e-14
6.976097367e-14
6.823038819e-14
6.673799136e-14
6.528360288e-14
6.386705912e-14
6.248820606e-14
6.11468851e-14
5.984290611e-14
5.857600415e-14
5.734574197e-14
5.615137307e-14
5.49914954e-14
5.386374462e-14
5.276329773e-14
5.168356088e-14
5.060858244e-14
4.951956685e-14
4.837702912e-14
4.712118793e-14
4.566140283e-14
4.387215467e-14
2.503360028e-14
2.571708503e-14
1.82165274e-14
1.274084539e-14
8.82832349e-15
6.055536664e-15
4.111604151e-15
2.763112102e-15
1.837371442e-15
1.208434845e-15
7.856241194e-16
5.044403423e-16
3.195332525e-16
1.993712872e-16
1.22270676e-16
7.348222973e-17
4.308401667e-17
2.447665283e-17
1.332207342e-17
6.803910311e-18
3.117966855e-18
1.125229955e-18
1.182923261e-19
-3.34012029e-19
-4.886862807e-19
-4.947619276e-19
-4.356207821e-19
-3.5563985e-19
-2.766763786e-19
-2.080655399e-19
-1.525388263e-19
-1.096251932e-19
-7.752924749e-20
-5.411163502e-20
-3.735620358e-20
-2.555575744e-20
-1.735268698e-20
-1.171185861e-20
-7.867795918e-21
-5.267563195e-21
-3.519174023e-21
-2.348970877e-21
-1.568324434e-21
-1.048599108e-21
-7.028350244e-22
-4.727051719e-22
-3.192592289e-22
-2.166571409e-22
-1.478150246e-22
-1.013886312e-22
-6.991626035e-23
-4.845620423e-23
-3.375773809e-23
-2.361139895e-23
-1.657312741e-23
-1.167662591e-23
-8.244638693e-24
-5.819704363e-24
-4.120259328e-24
-2.92872977e-24
-2.077258453e-24
-1.469108861e-24
-1.035158945e-24
-7.38257083e-25
-5.176820996e-25
-3.654168463e-25
-2.552374663e-25
-1.794386141e-25
-1.25828338e-25
-8.802294554e-26
-6.251117855e-26
-4.289198359e-26
-2.798921607e-26
-1.90768855e-26
-1.350955091e-26
-9.040673172e-27
-9.531314453e-28
-5.651744936e-27
-1.247066352e-27
-4.061196062e-27
3.30296129e-27
-2.858779907e-27
-1.04206519e-27
-6.631267403e-30
2.460111213e-28
-7.533215347e-28
3.027964159e-28
-5.108030122e-28
-4.818995149e-28
-2.740152338e-28
5.528460016e-28
-4.936430608e-28
1.396072717e-28
-3.681320023e-28
-1.733507743e-29
1.9011874e-28
-1.363692691e-28
-8.183911514e-29
6.530258913e-30
8.199690372e-29
1.517341764e-30
1.784406977e-29
4.66419192e-29
-5.105582344e-29
-6.41315509e-29
-1.141920723e-28
-8.709546014e-29
-1.058894773e-28
1.108338073e-28
-6.196503484e-29
-1.090415923e-29
6.488486468e-30
-1.637050611e-29
3.979345323e-29
-3.897192075e-29
-1.949737982e-29
1.099086959e-29
-2.300940945e-29
2.106572478e-29
9.339808011e-30
1.916913709e-29
-4.47924935e-30
-9.588818252e-30
1.035880523e-29
-2.138226635e-29
3.360177731e-29
-2.510094249e-29
-5.268828447e-30
2.161955626e-29
-9.573122332e-30
2.404071215e-31
-3.720249274e-29
6.56485019e-29
9.31243122e-30
3.781758457e-30
1.165680176e-29
-5.124916984e-29
3.74144555e-29
1.075237057e-28
-2.625813769e-29
-3.138149849e-29
2.176435937e-29
-3.910290802e-29
9.593595811e-29
4.922540313e-29
-7.0155051e-29
-7.998011391e-29
9.976891829e-29
4.473902693e-29
2.16333021e-29
4.170121071e-29
-5.115541134e-29
-2.151870439e-28
-8.410013496e-29
-6.13944446e-29
1.500444087e-29
-1.434259069e-29
5.252411811e-29
1.373391706e-28
8.209835625e-29
1.148690906e-28
1.919903795e-29
2.526497681e-29
5.948131842e-29
1.757405204e-29
-7.637434453e-29
-1.917761693e-29
5.899590922e-29
-3.088194169e-29
1.217514546e-28
7.982729369e-30
-2.772832855e-29
1.911038034e-29
-6.086761577e-29
-3.855193629e-31
-4.883741038e-30
5.712759751e-29
2.295429257e-29
7.321176679e-29
9.599880569e-29
3.480589297e-29
7.566520392e-29
1.139697887e-28
9.074476436e-29
1.435208882e-28
-2.425098684e-29
5.450373947e-29
-3.647975502e-30
1.02065688e-28
2.46781216e-29
9.477853583e-29
1.489982232e-28
5.844514219e-29
9.127375742e-29
7.791295687e-29
3.146575711e-29
2.877455693e-29
3.570389576e-29
3.737882099e-29
-3.32911653e-29
-8.606565468e-29
-1.097140926e-28
-3.466292471e-30
-5.319698097e-29
-2.191714589e-29
1.440964709e-29
-3.84904575e-29
3.597544242e-29
3.211560624e-29
-4.158162076e-30
7.587047251e-29
4.089472279e-29
-4.056648545e-29
-2.058148968e-29
-1.183164309e-29
8.770762913e-29
-1.474018676e-29
1.895065317e-29
-1.274798587e-29
-1.141795798e-29
9.001971767e-30
4.28956044e-30
-2.329842977e-29
-9.513047568e-31
-1.793163602e-30
1.335072452e-29
4.150197835e-29
-1.878046154e-29
1.293034735e-31
-1.216323535e-29
-1.712724429e-29
-2.443660792e-29
4.357922254e-29
2.278766341e-29
-4.792417273e-29
-2.403879408e-29
-1.021117479e-29
-8.690513628e-29
-5.781374115e-29
-4.107835729e-29
-1.294657034e-28
-2.8859315e-29
-9.760873184e-29
-1.406166134e-28
-6.525922961e-29
-2.174417133e-28
-1.756372327e-28
-8.672212854e-29
-5.604391166e-29
-6.848534986e-29
)
;

boundaryField
{
    inlet
    {
        type            calculated;
        value           uniform 0;
    }
    outlet
    {
        type            calculated;
        value           uniform -6.847971505e-29;
    }
    wall
    {
        type            empty;
    }
}


// ************************************************************************* //
