/*--------------------------------*- C++ -*----------------------------------*\
  =========                 |
  \\      /  F ield         | OpenFOAM: The Open Source CFD Toolbox
   \\    /   O peration     | Website:  https://openfoam.org
    \\  /    A nd           | Version:  7
     \\/     M anipulation  |
\*---------------------------------------------------------------------------*/
FoamFile
{
    version     2.0;
    format      ascii;
    class       volScalarField;
    location    "0.000558243009";
    object      ddt0(rho,C3H6);
}
// * * * * * * * * * * * * * * * * * * * * * * * * * * * * * * * * * * * * * //

dimensions      [1 -3 -1 0 0 0 0];

internalField   nonuniform List<scalar> 
1500
(
-3.186150283e-08
-9.787897585e-08
-1.495215547e-07
-1.538241609e-07
-1.198597385e-07
-7.537363926e-08
-3.98043104e-08
-1.815665763e-08
-7.341887438e-09
-2.763363668e-09
-1.12041589e-09
-6.610170369e-10
-6.141957906e-10
-6.87725154e-10
-7.814743816e-10
-8.641500863e-10
-9.26413121e-10
-9.65584439e-10
-9.811348523e-10
-9.733913388e-10
-9.43184702e-10
-8.917371446e-10
-8.206038596e-10
-7.316257937e-10
-6.268843045e-10
-5.086578218e-10
-3.793823784e-10
-2.416175789e-10
-9.801822963e-11
4.868960416e-11
1.957306045e-10
3.403035488e-10
4.796094101e-10
6.108871135e-10
7.314585069e-10
8.38782872e-10
9.305197768e-10
1.004596692e-09
1.059277894e-09
1.093229381e-09
1.105574578e-09
1.095936003e-09
1.064458968e-09
1.011814788e-09
9.391825863e-10
8.482105105e-10
7.409587228e-10
6.198278809e-10
4.87477627e-10
3.467400042e-10
2.005326577e-10
5.17760328e-11
-9.668201312e-11
-2.421318009e-10
-3.82056334e-10
-5.141744437e-10
-6.364730139e-10
-7.472292922e-10
-8.450245397e-10
-9.287502581e-10
-9.976080274e-10
-1.051103671e-09
-1.089036249e-09
-1.111481928e-09
-1.118772862e-09
-1.11147103e-09
-1.09033735e-09
-1.056296607e-09
-1.010399208e-09
-9.537812099e-10
-8.876244013e-10
-8.131184623e-10
-7.31427239e-10
-6.436610148e-10
-5.508562927e-10
-4.539639484e-10
-3.53846096e-10
-2.512811633e-10
-1.46976089e-10
-4.158403662e-11
6.4274457e-11
1.699890382e-10
2.749379858e-10
3.784695542e-10
4.798877476e-10
5.784437247e-10
6.733334464e-10
7.637017386e-10
8.48652467e-10
9.272640988e-10
9.98609666e-10
1.061779922e-09
1.11590835e-09
1.160196653e-09
1.193939418e-09
1.216546626e-09
1.227563006e-09
1.226683227e-09
1.213762325e-09
1.188820915e-09
1.152045093e-09
1.103781244e-09
1.044526207e-09
9.749135833e-10
8.956971227e-10
8.077322591e-10
7.119569457e-10
6.093728111e-10
5.010275307e-10
3.879991033e-10
2.713823924e-10
1.522779928e-10
3.178325e-11
-8.901508365e-11
-2.090471105e-10
-3.272656874e-10
-4.4265258e-10
-5.542254054e-10
-6.61045671e-10
-7.622279659e-10
-8.569501259e-10
-9.444639206e-10
-1.024105714e-09
-1.095306387e-09
-1.157599799e-09
-1.210629201e-09
-1.254151147e-09
-1.288036639e-09
-1.312269537e-09
-1.326942454e-09
-1.332250567e-09
-1.328483952e-09
-1.316019065e-09
-1.295310015e-09
-1.266880136e-09
-1.231314251e-09
-1.189251725e-09
-1.141380283e-09
-1.088430187e-09
-1.031168347e-09
-9.703916905e-10
-9.069190951e-10
-8.415813266e-10
-7.752083934e-10
-7.086141858e-10
-6.425783762e-10
-5.778260077e-10
-5.150055063e-10
-4.546662503e-10
-3.972369964e-10
-3.430067199e-10
-2.921094682e-10
-2.445147912e-10
-2.000249598e-10
-1.582800992e-10
-1.187715821e-10
-8.086385579e-11
-4.382389072e-11
-6.857260607e-12
3.085106362e-11
7.009325311e-11
1.115951191e-10
1.559751838e-10
2.037090013e-10
2.551010994e-10
3.102666608e-10
3.69124184e-10
4.313999145e-10
4.966438239e-10
5.642561092e-10
6.335223839e-10
7.036549574e-10
7.738370733e-10
8.43266764e-10
9.111968642e-10
9.76967971e-10
1.040031944e-09
1.099964091e-09
1.156463437e-09
1.209341428e-09
1.258500668e-09
1.303906116e-09
1.345551969e-09
1.383427821e-09
1.417487716e-09
1.447625326e-09
1.473657904e-09
1.495320432e-09
1.512270677e-09
1.524104465e-09
1.530379708e-09
1.530646929e-09
1.524483603e-09
1.511529552e-09
1.491520847e-09
1.464319899e-09
1.42994001e-09
1.388563071e-09
1.340549413e-09
1.286438762e-09
1.226941799e-09
1.162921124e-09
1.095360969e-09
1.02532517e-09
9.539033459e-10
8.821469656e-10
8.109980343e-10
7.412158634e-10
6.733091033e-10
6.074824382e-10
5.436084561e-10
4.812350869e-10
4.196371069e-10
3.579167715e-10
2.95152542e-10
2.30587552e-10
1.638412783e-10
9.511947008e-11
2.539018578e-11
-4.350997357e-11
-1.088757725e-10
-1.672703751e-10
-2.148197422e-10
-2.476677905e-10
-2.625743072e-10
-2.57613193e-10
-2.329035413e-10
-1.9128382e-10
-1.388235697e-10
-8.506067532e-11
-4.285881999e-11
-2.780059107e-11
-5.706852975e-11
-1.478161713e-10
-3.150930916e-10
-5.694553659e-10
-9.144598848e-10
-1.344300736e-09
-1.841889422e-09
-2.377702961e-09
-2.909720636e-09
-3.384750805e-09
-3.741421986e-09
-3.915141967e-09
-3.8453019e-09
-3.485183995e-09
-2.813582847e-09
-1.84664419e-09
-6.326760153e-10
7.877088402e-10
1.674551696e-09
1.788417148e-09
1.8833823e-09
1.974033757e-09
2.063622899e-09
2.152712645e-09
2.241079113e-09
2.328410153e-09
2.414393485e-09
2.498798611e-09
2.581454601e-09
2.662216265e-09
2.740954285e-09
2.817525394e-09
2.89178027e-09
2.963563565e-09
3.032703574e-09
3.099021662e-09
3.162330194e-09
3.222436089e-09
3.27913507e-09
3.332208542e-09
3.381435982e-09
3.426581181e-09
3.467404439e-09
3.503638383e-09
3.535019263e-09
3.561259886e-09
3.582069051e-09
3.597127142e-09
3.606112373e-09
3.608675999e-09
3.604458155e-09
3.593080115e-09
3.574136084e-09
3.547208898e-09
3.511856603e-09
3.467609057e-09
3.413977781e-09
3.350447359e-09
3.276472224e-09
3.191478927e-09
3.0948623e-09
2.98599031e-09
2.864189496e-09
2.728752605e-09
2.57893938e-09
2.413963704e-09
2.232996676e-09
2.035171365e-09
1.819566944e-09
1.58521834e-09
1.331102868e-09
1.056150644e-09
7.592294076e-10
4.391471161e-10
9.464750936e-11
-2.755917653e-10
-6.729609429e-10
-1.098924278e-09
-1.555028055e-09
-2.042890903e-09
-2.564224316e-09
-3.12082081e-09
-3.714572212e-09
-4.347458587e-09
-5.021569472e-09
-5.739097029e-09
-6.502339587e-09
-7.313718591e-09
-8.175767579e-09
-9.091148237e-09
-1.006264829e-08
-1.109319961e-08
-1.218586177e-08
-1.33438535e-08
-1.457053208e-08
-1.58694204e-08
-1.724419864e-08
-1.869872014e-08
-2.023700888e-08
-2.186326932e-08
-2.358189757e-08
-2.539746795e-08
-2.73147711e-08
-2.933878629e-08
-3.147471494e-08
-3.372796773e-08
-3.610417563e-08
-3.860920522e-08
-4.124915328e-08
-4.403035535e-08
-4.695939632e-08
-5.004310933e-08
-5.328858521e-08
-5.670318027e-08
-6.029451112e-08
-6.407047305e-08
-6.803923496e-08
-7.220924898e-08
-7.65892533e-08
-8.118827034e-08
-8.601562632e-08
-9.108093035e-08
-9.639410274e-08
-1.019653613e-07
-1.078052209e-07
-1.139245107e-07
-1.203343634e-07
-1.270462163e-07
-1.34071816e-07
-1.414232154e-07
-1.49112768e-07
-1.57153137e-07
-1.655572815e-07
-1.743384627e-07
-1.835102276e-07
-1.930864281e-07
-2.030811831e-07
-2.135089001e-07
-2.243842538e-07
-2.357221856e-07
-2.475378907e-07
-2.598468093e-07
-2.726646236e-07
-2.860072292e-07
-2.998907493e-07
-3.143314949e-07
-3.293459753e-07
-3.449508639e-07
-3.61162994e-07
-3.779993422e-07
-3.954770063e-07
-4.136131976e-07
-4.324252048e-07
-4.519303857e-07
-4.721461553e-07
-4.930899448e-07
-5.147791938e-07
-5.372313305e-07
-5.604637283e-07
-5.844937043e-07
-6.093384806e-07
-6.350151736e-07
-6.615407453e-07
-6.88932004e-07
-7.172055502e-07
-7.463777753e-07
-7.764648222e-07
-8.074825521e-07
-8.394465298e-07
-8.723719819e-07
-9.062737889e-07
-9.411664334e-07
-9.77063995e-07
-1.013980105e-06
-1.05192793e-06
-1.090920151e-06
-1.130968916e-06
-1.172085837e-06
-1.21428196e-06
-1.257567728e-06
-1.301952984e-06
-1.347446915e-06
-1.394058065e-06
-1.441794305e-06
-1.490662795e-06
-1.54067e-06
-1.591821652e-06
-1.644122746e-06
-1.697577538e-06
-1.752189505e-06
-1.807961381e-06
-1.86489512e-06
-1.922991902e-06
-1.982252136e-06
-2.042675471e-06
-2.104260777e-06
-2.167006172e-06
-2.230909043e-06
-2.295966022e-06
-2.362173042e-06
-2.429525341e-06
-2.498017484e-06
-2.567643383e-06
-2.638396361e-06
-2.710269134e-06
-2.783253903e-06
-2.85734235e-06
-2.932525714e-06
-3.008794836e-06
-3.086140193e-06
-3.164551985e-06
-3.244020168e-06
-3.324534548e-06
-3.406084842e-06
-3.488660737e-06
-3.572251994e-06
-3.656848528e-06
-3.742440485e-06
-3.829018342e-06
-3.916573021e-06
-4.005095955e-06
-4.09457927e-06
-4.185015793e-06
-4.276399264e-06
-4.368724432e-06
-4.461987152e-06
-4.556184559e-06
-4.651315209e-06
-4.747379166e-06
-4.844378259e-06
-4.942316108e-06
-5.041198407e-06
-5.141032994e-06
-5.241830071e-06
-5.343602411e-06
-5.446365468e-06
-5.550137611e-06
-5.654940302e-06
-5.760798324e-06
-5.867739966e-06
-5.975797211e-06
-6.085005997e-06
-6.19540642e-06
-6.307042963e-06
-6.419964713e-06
-6.534225647e-06
-6.649884852e-06
-6.76700673e-06
-6.885661355e-06
-7.005924688e-06
-7.12787881e-06
-7.251612282e-06
-7.377220332e-06
-7.504805236e-06
-7.634476557e-06
-7.766351468e-06
-7.90055508e-06
-8.037220716e-06
-8.176490247e-06
-8.318514454e-06
-8.46345335e-06
-8.611476489e-06
-8.762763357e-06
-8.917503764e-06
-9.075898111e-06
-9.23815782e-06
-9.404505815e-06
-9.575176694e-06
-9.750417329e-06
-9.930487234e-06
-1.01156589e-05
-1.030621829e-05
-1.050246532e-05
-1.070471427e-05
-1.091329414e-05
-1.112854926e-05
-1.135083956e-05
-1.158054086e-05
-1.18180449e-05
-1.206375477e-05
-1.23181478e-05
-1.258003211e-05
-1.285163128e-05
-1.313465132e-05
-1.343167059e-05
-1.373888939e-05
-1.405678417e-05
-1.438592104e-05
-1.472688781e-05
-1.508030174e-05
-1.544680845e-05
-1.582708385e-05
-1.622183542e-05
-1.663180406e-05
-1.70577548e-05
-1.750093026e-05
-1.796897548e-05
-1.845645748e-05
-1.896415179e-05
-1.949303029e-05
-2.004233345e-05
-2.061335004e-05
-2.120830791e-05
-2.182825812e-05
-2.247426518e-05
-2.314744574e-05
-2.384896075e-05
-2.458001478e-05
-2.53418577e-05
-2.613578615e-05
-2.696314528e-05
-2.782533151e-05
-2.872379409e-05
-2.966003809e-05
-3.063562707e-05
-3.165218567e-05
-3.2711403e-05
-3.381503621e-05
-3.496491399e-05
-3.616294127e-05
-3.741110341e-05
-3.871147226e-05
-4.006621133e-05
-4.147758328e-05
-4.29479572e-05
-4.447981751e-05
-4.607577427e-05
-4.773857443e-05
-4.947111572e-05
-5.127646192e-05
-5.315786127e-05
-5.511876734e-05
-5.716286449e-05
-5.929409636e-05
-6.151670074e-05
-6.383524977e-05
-6.625469759e-05
-6.878043749e-05
-7.141836786e-05
-7.417497256e-05
-7.705741455e-05
-8.007364847e-05
-8.323255281e-05
-8.654408977e-05
-9.001949286e-05
-9.367149237e-05
-9.751458265e-05
-0.000101565342
-0.0001058428134
-0.0001103689585
-0.0001151691995
-0.0001202730654
-0.000125714964
-0.0001315351011
-0.0001377805795
-0.0001445067095
-0.000151778572
-0.0001596728861
-0.0001682802332
-0.0001777077158
-0.0001880821253
-0.0001995537231
-0.0002123007506
-0.0002265348066
-0.0002425072617
-0.0002605169055
-0.0002809190643
-0.0003041364692
-0.0003306722091
-0.0003611251668
-0.0003962084105
-0.0004367711017
-0.0004838245896
-0.0005385734848
-0.0006024526547
-0.0006771712615
-0.0007647651718
-0.000867659318
-0.0009887418728
-0.001131452483
-0.001299887158
-0.001498922971
-0.00173436623
-0.00201312854
-0.002343435876
-0.002735076846
-0.003199697359
-0.003751150225
-0.00440590983
-0.005183563765
-0.006107395415
-0.00720507411
-0.00850947214
-0.01005963167
-0.01190190805
-0.01409132127
-0.0166931519
-0.01978482474
-0.02345812993
-0.02782183958
-0.03300478748
-0.0391594897
-0.04646639531
-0.05513887125
-0.06542903757
-0.07763458728
-0.09210674181
-0.1092595093
-0.1295804347
-0.1536430445
-0.1821212092
-0.215805658
-0.2556228859
-0.3026566966
-0.3581726116
-0.4236453342
-0.5007894176
-0.5915931799
-0.6983557867
-0.8237272182
-0.9707505865
-1.142905898
-1.34415392
-1.578978176
-1.852422397
-2.170120703
-2.538311127
-2.963837996
-3.454121561
-4.017096778
-4.661107555
-5.39474407
-6.226623344
-7.165074379
-8.217751855
-9.391146082
-10.68999501
-12.11659934
-13.67005196
-15.34540296
-17.13279378
-19.01660643
-20.97468527
-22.97769803
-24.98870933
-26.96303156
-28.84842543
-30.58568377
-32.10962532
-33.35048411
-34.23563034
-34.69157658
-34.64601736
-34.02986565
-32.77900924
-30.83554857
-28.14879208
-24.67506211
-20.37771495
-15.2262961
-9.196239012
-2.270620473
5.551302898
14.23180839
23.64327344
34.41561373
45.48726095
62.68079058
78.58774983
91.74421962
85.45900916
108.0574893
123.529367
133.5980248
138.4318772
140.0538095
145.6202011
160.3191975
176.8979279
180.9527432
161.0949944
132.5884309
100.2998469
43.6947702
-27.17717832
-105.5301048
-139.5545859
-235.1347595
-342.0596067
-460.3618835
-441.3594535
-562.1590476
-671.8711547
-763.7274073
-833.9875356
-881.1200657
-903.7249829
-862.4103164
-838.5559859
-788.8199821
-723.4940424
-647.7368363
-567.7766267
-487.7118534
-411.2523161
-339.7735218
-273.242943
-216.9862271
-170.3210177
-132.3321823
-102.0405131
-78.54056932
-60.43019873
-46.46516052
-35.58341351
-26.81912102
-20.1385314
-15.1892599
-11.40654167
-8.534242396
-6.365756349
-4.73623121
-3.516249708
-2.604581337
-1.926343633
-1.422256849
-1.048317243
-0.7714162755
-0.5667211943
-0.4156544305
-0.3043485616
-0.222472471
-0.1623435684
-0.1182587846
-0.08599125965
-0.06241360164
-0.04521559306
-0.03269339897
-0.02359242874
-0.01699038788
-0.01221038278
-0.008756458277
-0.0062658536
-0.00447369644
-0.003186936359
-0.002265130223
-0.001606301627
-0.001136551192
-0.0008024356227
-0.0005653871879
-0.0003976344928
-0.0002792260137
-0.0001958623223
-0.0001373203171
-9.631007283e-05
-6.76472545e-05
-4.765527958e-05
-3.373441973e-05
-2.405195835e-05
-1.731994405e-05
-1.263618807e-05
-9.370817519e-06
-7.085563449e-06
-5.476510706e-06
-4.33361842e-06
-3.51219328e-06
-2.912857612e-06
-2.467534593e-06
-2.12968153e-06
-1.867511538e-06
-1.659309565e-06
-1.490210218e-06
-1.349991588e-06
-1.231571962e-06
-1.129990469e-06
-1.041719197e-06
-9.642011249e-07
-8.95540986e-07
-8.342991097e-07
-7.793541497e-07
-7.298116293e-07
-6.849427575e-07
-6.441431492e-07
-6.069045617e-07
-5.72795136e-07
-5.414451889e-07
-5.125366606e-07
-4.857949936e-07
-4.609826688e-07
-4.378939105e-07
-4.16350246e-07
-3.96196721e-07
-3.772986441e-07
-3.595387663e-07
-3.428148366e-07
-3.27037483e-07
-3.121283785e-07
-2.980186602e-07
-2.846475691e-07
-2.719612852e-07
-2.599119325e-07
-2.484567319e-07
-2.375572817e-07
-2.271789481e-07
-2.172903494e-07
-2.078629211e-07
-1.988705472e-07
-1.902892504e-07
-1.820969293e-07
-1.742731046e-07
-1.667988598e-07
-1.596564828e-07
-1.528294765e-07
-1.463023828e-07
-1.400607041e-07
-1.340908082e-07
-1.283798559e-07
-1.229157339e-07
-1.176869985e-07
-1.126828246e-07
-1.078929609e-07
-1.0330769e-07
-9.891779298e-08
-9.471451609e-08
-9.068954242e-08
-8.683496469e-08
-8.314326108e-08
-7.960727256e-08
-7.622018271e-08
-7.297549819e-08
-6.986703127e-08
-6.688888345e-08
-6.403542992e-08
-6.130130534e-08
-5.868139052e-08
-5.617079972e-08
-5.376486889e-08
-5.14591447e-08
-4.924937378e-08
-4.713149331e-08
-4.510162138e-08
-4.315604836e-08
-4.129122867e-08
-3.950377283e-08
-3.779044012e-08
-3.614813145e-08
-3.457388296e-08
-3.306485942e-08
-3.161834838e-08
-3.023175451e-08
-2.890259422e-08
-2.762849045e-08
-2.640716791e-08
-2.523644845e-08
-2.411424659e-08
-2.303856537e-08
-2.200749249e-08
-2.101919638e-08
-2.007192265e-08
-1.916399073e-08
-1.829379048e-08
-1.745977923e-08
-1.666047868e-08
-1.589447219e-08
-1.516040199e-08
-1.445696671e-08
-1.378291892e-08
-1.313706267e-08
-1.251825147e-08
-1.192538603e-08
-1.135741223e-08
-1.081331925e-08
-1.029213775e-08
-9.792937958e-09
-9.314828156e-09
-8.856953e-09
-8.418491957e-09
-7.998657872e-09
-7.596695607e-09
-7.211880586e-09
-6.84351765e-09
-6.490939728e-09
-6.153506733e-09
-5.830604399e-09
-5.52164323e-09
-5.22605749e-09
-4.943304203e-09
-4.672862217e-09
-4.414231297e-09
-4.166931325e-09
-3.930501391e-09
-3.704499075e-09
-3.488499666e-09
-3.282095435e-09
-3.084894979e-09
-2.896522508e-09
-2.71661726e-09
-2.544832859e-09
-2.380836761e-09
-2.224309678e-09
-2.074945047e-09
-1.93244854e-09
-1.796537535e-09
-1.666940672e-09
-1.54339741e-09
-1.425657567e-09
-1.313480934e-09
-1.206636852e-09
-1.104903855e-09
-1.008069285e-09
-9.159289506e-10
-8.28286798e-10
-7.449545773e-10
-6.657515263e-10
-5.905040929e-10
-5.190456428e-10
-4.512161728e-10
-3.868620687e-10
-3.258358366e-10
-2.679958751e-10
-2.132062324e-10
-1.613363843e-10
-1.122610299e-10
-6.585987457e-11
-2.201744466e-11
1.937712352e-11
5.843023602e-11
9.524403589e-11
1.29916571e-10
1.625419398e-10
1.932104624e-10
2.220088234e-10
2.490202113e-10
2.743244595e-10
2.979981732e-10
3.20114868e-10
3.407450737e-10
3.599564632e-10
3.778139633e-10
3.943798602e-10
4.097139031e-10
4.238733989e-10
4.369133237e-10
4.488863954e-10
4.598431724e-10
4.698321374e-10
4.78899778e-10
4.870906641e-10
4.944475222e-10
5.010113124e-10
5.068212918e-10
5.1191509e-10
5.163287596e-10
5.200968516e-10
5.232524692e-10
5.258273191e-10
5.278517776e-10
5.293549352e-10
5.303646493e-10
5.309075913e-10
5.310092981e-10
5.306942114e-10
5.299857248e-10
5.289062228e-10
5.274771223e-10
5.257189108e-10
5.236511816e-10
5.212926721e-10
5.18661295e-10
5.157741735e-10
5.126476704e-10
5.092974217e-10
5.057383608e-10
5.019847526e-10
4.980502141e-10
4.939477448e-10
4.896897495e-10
4.85288064e-10
4.807539741e-10
4.760982442e-10
4.713311305e-10
4.664624088e-10
4.615013899e-10
4.564569386e-10
4.513374939e-10
4.461510852e-10
4.409053486e-10
4.356075434e-10
4.302645684e-10
4.248829755e-10
4.194689848e-10
4.140284982e-10
4.085671124e-10
4.030901329e-10
3.976025829e-10
3.921092189e-10
3.866145402e-10
3.811227995e-10
3.756380136e-10
3.701639739e-10
3.647042552e-10
3.592622261e-10
3.538410566e-10
3.484437275e-10
3.430730375e-10
3.377316147e-10
3.324219172e-10
3.271462483e-10
3.219067576e-10
3.16705451e-10
3.115441958e-10
3.064247271e-10
3.013486537e-10
2.963174643e-10
2.913325324e-10
2.863951221e-10
2.815063924e-10
2.766674031e-10
2.718791188e-10
2.671424132e-10
2.624580739e-10
2.578268066e-10
2.532492385e-10
2.487259222e-10
2.442573407e-10
2.39843908e-10
2.354859759e-10
2.311838348e-10
2.269376542e-10
2.227477426e-10
2.186141605e-10
2.145369864e-10
2.105162428e-10
2.065519293e-10
2.026439799e-10
1.987923037e-10
1.949967699e-10
1.912572139e-10
1.875734376e-10
1.839452119e-10
1.80372278e-10
1.768543501e-10
1.733911165e-10
1.699822417e-10
1.666273673e-10
1.633261145e-10
1.600780842e-10
1.568828594e-10
1.537400062e-10
1.506490751e-10
1.476096018e-10
1.446211088e-10
1.416831061e-10
1.387950927e-10
1.35956557e-10
1.331669782e-10
1.304258269e-10
1.277325663e-10
1.250866524e-10
1.224875355e-10
1.199346602e-10
1.174274669e-10
1.149653917e-10
1.125478675e-10
1.101743243e-10
1.078441903e-10
1.055568915e-10
1.033118534e-10
1.011085003e-10
9.894625665e-11
9.682454711e-11
9.474279689e-11
9.270043232e-11
9.069688121e-11
8.873157289e-11
8.680393911e-11
8.491341374e-11
8.305943347e-11
8.124143789e-11
7.94588698e-11
7.771117545e-11
7.599780477e-11
7.431821155e-11
7.267185361e-11
7.105819314e-11
6.947669657e-11
6.792683512e-11
6.640808454e-11
6.491992547e-11
6.346184357e-11
6.203332966e-11
6.063387959e-11
5.926299457e-11
5.792018117e-11
5.660495145e-11
5.531682288e-11
5.405531861e-11
5.281996739e-11
5.161030351e-11
5.042586724e-11
4.926620431e-11
4.813086644e-11
4.701941098e-11
4.593140122e-11
4.486640625e-11
4.382400093e-11
4.280376597e-11
4.180528798e-11
4.082815933e-11
3.987197819e-11
3.893634856e-11
3.802088027e-11
3.712518883e-11
3.624889552e-11
3.539162737e-11
3.455301703e-11
3.373270283e-11
3.293032877e-11
3.214554433e-11
3.137800461e-11
3.062737019e-11
2.98933071e-11
2.917548683e-11
2.847358618e-11
2.778728732e-11
2.711627768e-11
2.64602499e-11
2.581890186e-11
2.519193648e-11
2.457906183e-11
2.397999094e-11
2.339444186e-11
2.28221375e-11
2.226280565e-11
2.171617891e-11
2.118199462e-11
2.06599948e-11
2.014992609e-11
1.965153975e-11
1.916459151e-11
1.868884157e-11
1.822405456e-11
1.776999945e-11
1.732644944e-11
1.689318207e-11
1.646997896e-11
1.605662591e-11
1.565291273e-11
1.525863332e-11
1.487358546e-11
1.449757085e-11
1.413039505e-11
1.37718674e-11
1.342180101e-11
1.30800126e-11
1.274632263e-11
1.242055507e-11
1.210253745e-11
1.179210081e-11
1.14890796e-11
1.119331169e-11
1.09046383e-11
1.062290393e-11
1.034795639e-11
1.007964668e-11
9.81782902e-12
9.562360745e-12
9.313102328e-12
9.069917315e-12
8.832672302e-12
8.601236913e-12
8.375483752e-12
8.155288413e-12
7.940529407e-12
7.731088212e-12
7.526849181e-12
7.327699609e-12
7.133529641e-12
6.944232335e-12
6.759703625e-12
6.579842325e-12
6.404550146e-12
6.233731711e-12
6.067294541e-12
5.90514912e-12
5.747208872e-12
5.593390243e-12
5.443612684e-12
5.297798741e-12
5.155874058e-12
5.017768578e-12
4.883412091e-12
4.752741034e-12
4.625694028e-12
4.502213074e-12
4.382243556e-12
4.26573445e-12
4.152637787e-12
4.042909347e-12
3.936507893e-12
3.833395174e-12
3.733535443e-12
3.636894743e-12
3.543439601e-12
3.453134722e-12
3.365939476e-12
3.281800646e-12
3.200642641e-12
3.122344158e-12
3.046717774e-12
2.9734148e-12
2.901968189e-12
2.831319918e-12
2.760233258e-12
2.686183493e-12
2.605401343e-12
2.512255714e-12
2.399023662e-12
1.214840018e-12
1.287606113e-12
8.617303349e-13
5.685725449e-13
3.715311364e-13
2.399378184e-13
1.529457172e-13
9.607135603e-14
5.933122802e-14
3.591058801e-14
2.120258115e-14
1.212435354e-14
6.634963529e-15
3.398704113e-15
1.552274368e-15
5.453539692e-16
3.255753002e-17
-1.990153416e-16
-2.778159063e-16
-2.793145051e-16
-2.463483696e-16
-2.020902748e-16
-1.581818012e-16
-1.197385137e-16
-8.836209275e-17
-6.390296988e-17
-4.545459798e-17
-3.188615544e-17
-2.210562896e-17
-1.5171446e-17
-1.032334475e-17
-6.973806191e-18
-4.683077132e-18
-3.130046261e-18
-2.084864678e-18
-1.385714638e-18
-9.202647343e-19
-6.114730448e-19
-4.070489275e-19
-2.718181125e-19
-1.822994822e-19
-1.229162642e-19
-8.33863864e-20
-5.694700318e-20
-3.915940222e-20
-2.711199807e-20
-1.889298177e-20
-1.324369377e-20
-9.331965459e-21
-6.60442809e-21
-4.690528946e-21
-3.340137324e-21
-2.38295267e-21
-1.701999046e-21
-1.216230918e-21
-8.690479968e-22
-6.206395412e-22
-4.428264728e-22
-3.155613072e-22
-2.245315293e-22
-1.594841165e-22
-1.130642853e-22
-7.999026618e-23
-5.646808784e-23
-3.977083047e-23
-2.794398396e-23
-1.95850306e-23
-1.369105675e-23
-9.545090877e-24
-6.636058394e-24
-4.600208756e-24
-3.179391359e-24
-2.190174829e-24
-1.504106587e-24
-1.029099887e-24
-7.016887418e-25
-4.766812828e-25
-3.225776462e-25
-2.173703127e-25
-1.460767358e-25
-9.728484756e-26
-6.483084482e-26
-4.285918482e-26
-2.817322602e-26
-1.839148192e-26
-1.201486144e-26
-7.70034024e-27
-4.989622197e-27
-3.250715583e-27
-2.016412666e-27
-1.212966084e-27
-8.32600178e-28
-4.841092248e-28
-3.380656167e-28
-1.873294814e-28
-1.131776095e-28
-7.260236176e-29
-4.988324029e-29
-2.778812814e-29
-7.272608584e-30
-1.046944067e-29
1.818746291e-30
3.405282539e-30
-2.590051273e-30
-3.026151346e-30
-8.148569637e-30
-3.770406033e-30
-2.132319975e-30
1.195745477e-29
-4.835809875e-30
2.611752693e-30
3.255765179e-30
-3.573420252e-30
-8.821048285e-31
-5.903545405e-30
-5.349829916e-30
-4.272953324e-30
2.987954395e-31
1.25868636e-30
5.666245303e-33
1.55391929e-30
-1.682228806e-30
9.501800122e-31
-1.256479354e-30
-8.272139322e-30
-1.393509523e-30
-1.742381605e-30
-4.012106944e-30
-5.952640733e-30
-1.222561266e-30
-6.963730728e-31
2.03240528e-30
-2.954371624e-30
-9.927643931e-31
-1.54629706e-30
-2.748738627e-30
-1.238457659e-30
2.653973126e-30
8.317317978e-30
-1.280036661e-29
-7.015409423e-30
-2.095580017e-30
1.438982308e-30
-3.32997929e-30
3.003161782e-30
7.887511741e-30
-1.170546466e-30
5.447829929e-30
4.661244199e-30
-6.948223751e-30
-3.538286992e-30
-6.919751899e-30
-4.155368087e-30
4.117288019e-30
2.734751702e-30
9.107930641e-30
-7.486870293e-30
1.362390045e-29
8.424081308e-30
1.240467483e-29
1.143506642e-29
3.372791312e-30
1.155781894e-30
3.821991237e-30
6.134830329e-30
3.497537835e-30
-4.132380448e-30
-8.122774472e-30
3.186600431e-30
1.326930716e-29
1.700990988e-30
2.720851668e-30
-1.514544701e-30
-3.327259705e-30
3.283774504e-30
4.021490076e-30
1.101641445e-29
6.12730149e-31
4.190937154e-30
1.141898195e-29
1.403138572e-31
1.24590832e-29
9.121387167e-30
9.377496266e-30
1.233268123e-29
6.369387836e-30
1.751481637e-30
-2.137440337e-30
2.192200893e-30
-2.830103803e-30
1.04257503e-29
1.020421642e-29
6.956087619e-30
7.772805353e-30
5.631838698e-30
-1.220055358e-30
6.326103058e-30
1.530580146e-30
3.248963447e-30
9.474321073e-31
-9.012206946e-30
-4.383681857e-30
-1.919778418e-30
3.342978477e-31
4.273596741e-30
3.568812024e-30
-6.527440292e-31
3.037173396e-30
3.223637631e-30
-5.520836927e-30
1.414793059e-30
6.754890665e-31
-1.820204123e-30
-8.470263217e-30
-5.042204786e-30
5.854751271e-30
-3.144491101e-30
-4.762482174e-32
-3.147990523e-30
-8.950131815e-31
-8.048300646e-31
-1.366033336e-30
-3.326542098e-30
-2.397222919e-30
-4.13598937e-30
-4.30364497e-30
5.589496014e-31
-5.352348091e-30
4.03293802e-30
-3.587663124e-30
-9.078385399e-31
-2.618827298e-30
4.711287269e-30
-7.959120283e-30
-8.424563393e-30
2.029174387e-30
-3.849151074e-31
-4.993430164e-30
-6.530823566e-30
-6.192630862e-30
-3.884222036e-30
-4.825257933e-30
-1.309029296e-29
-1.136148608e-29
-7.5508857e-30
-1.744043531e-29
-1.219688169e-29
3.457807176e-30
-5.527094169e-30
-4.649973568e-31
)
;

boundaryField
{
    inlet
    {
        type            calculated;
        value           uniform 0;
    }
    outlet
    {
        type            calculated;
        value           uniform -4.640199792e-31;
    }
    wall
    {
        type            empty;
    }
}


// ************************************************************************* //
