/*--------------------------------*- C++ -*----------------------------------*\
  =========                 |
  \\      /  F ield         | OpenFOAM: The Open Source CFD Toolbox
   \\    /   O peration     | Website:  https://openfoam.org
    \\  /    A nd           | Version:  7
     \\/     M anipulation  |
\*---------------------------------------------------------------------------*/
FoamFile
{
    version     2.0;
    format      ascii;
    class       volScalarField;
    location    "0.000558243009";
    object      ddt0(rho,C5H11-1);
}
// * * * * * * * * * * * * * * * * * * * * * * * * * * * * * * * * * * * * * //

dimensions      [1 -3 -1 0 0 0 0];

internalField   nonuniform List<scalar> 
1500
(
-1.150423942e-12
-3.479400081e-12
-5.248069622e-12
-5.324750028e-12
-4.088672419e-12
-2.532388364e-12
-1.316545214e-12
-5.909312571e-13
-2.351260591e-13
-8.738510097e-14
-3.561468292e-14
-2.1791331e-14
-2.091824634e-14
-2.370498366e-14
-2.702097874e-14
-2.990174897e-14
-3.20615482e-14
-3.341841252e-14
-3.395686484e-14
-3.368891624e-14
-3.264347964e-14
-3.086288935e-14
-2.840097735e-14
-2.532145983e-14
-2.169637253e-14
-1.760457162e-14
-1.313036783e-14
-8.362348687e-15
-3.392396663e-15
1.685139572e-15
6.774206623e-15
1.177785462e-14
1.65992097e-14
2.114271141e-14
2.531566932e-14
2.903014958e-14
3.220515015e-14
3.476894114e-14
3.666144935e-14
3.783650525e-14
3.826377071e-14
3.793018104e-14
3.684076557e-14
3.501875837e-14
3.250496871e-14
2.935643874e-14
2.564447039e-14
2.145215003e-14
1.687152752e-14
1.20006194e-14
6.940404963e-15
1.791960402e-15
-3.346150413e-15
-8.380145827e-15
-1.322291303e-14
-1.779550109e-14
-2.202823634e-14
-2.586149458e-14
-2.92461735e-14
-3.214390813e-14
-3.452706521e-14
-3.637854144e-14
-3.769138231e-14
-3.846822391e-14
-3.872056203e-14
-3.846784673e-14
-3.773641322e-14
-3.655826818e-14
-3.496976608e-14
-3.301022561e-14
-3.072054835e-14
-2.814190893e-14
-2.531458789e-14
-2.227701195e-14
-1.90650544e-14
-1.571162484e-14
-1.224656091e-14
-8.696803902e-15
-5.086820854e-15
-1.439217669e-15
2.224529006e-15
5.883294856e-15
9.515562274e-15
1.309877438e-14
1.660884294e-14
2.001985057e-14
2.330396965e-14
2.643160277e-14
2.937173479e-14
3.209247162e-14
3.456173106e-14
3.674804417e-14
3.862142096e-14
4.015423255e-14
4.13220646e-14
4.210449667e-14
4.248577196e-14
4.245532295e-14
4.200813246e-14
4.114491396e-14
3.987210829e-14
3.820170366e-14
3.615089568e-14
3.374161319e-14
3.099994329e-14
2.795549251e-14
2.464072322e-14
2.109030163e-14
1.734048766e-14
1.342859065e-14
9.392503714e-15
5.270318219e-15
1.100013173e-15
-3.080799115e-15
-7.235089645e-15
-1.132661694e-14
-1.532014007e-14
-1.918165888e-14
-2.287869232e-14
-2.638059645e-14
-2.965891627e-14
-3.268775562e-14
-3.544414623e-14
-3.790839086e-14
-4.006435654e-14
-4.189969624e-14
-4.340598429e-14
-4.457875609e-14
-4.541745309e-14
-4.592528056e-14
-4.610899355e-14
-4.597863155e-14
-4.554722371e-14
-4.483048657e-14
-4.38465327e-14
-4.261560271e-14
-4.115982499e-14
-3.950300153e-14
-3.767040658e-14
-3.568858287e-14
-3.358511187e-14
-3.138833481e-14
-2.912700442e-14
-2.682984709e-14
-2.452503152e-14
-2.223954202e-14
-1.999847221e-14
-1.782426402e-14
-1.57359314e-14
-1.374831349e-14
-1.187141173e-14
-1.010986545e-14
-8.462620774e-15
-6.922834345e-15
-5.478050947e-15
-4.110667074e-15
-2.798686351e-15
-1.51673867e-15
-2.373291293e-16
1.067750338e-15
2.425916659e-15
3.862290053e-15
5.398277463e-15
7.050337733e-15
8.829010599e-15
1.073828243e-14
1.27753325e-14
1.493068625e-14
1.718876821e-14
1.952881933e-14
2.192611473e-14
2.435339264e-14
2.678238518e-14
2.918533641e-14
3.153638704e-14
3.381271523e-14
3.599534989e-14
3.806959256e-14
4.002502649e-14
4.185512588e-14
4.355651981e-14
4.512799561e-14
4.656935237e-14
4.788022996e-14
4.905903781e-14
5.010209598e-14
5.100307965e-14
5.175281648e-14
5.233946196e-14
5.274902757e-14
5.296621278e-14
5.297546128e-14
5.276214949e-14
5.231381169e-14
5.162131345e-14
5.06798927e-14
4.949000983e-14
4.805796016e-14
4.639621463e-14
4.452345309e-14
4.246427208e-14
4.024852609e-14
3.791027918e-14
3.548635066e-14
3.301445199e-14
3.053097437e-14
2.80685205e-14
2.565336999e-14
2.330312715e-14
2.10248761e-14
1.881420713e-14
1.665547412e-14
1.452357725e-14
1.238744563e-14
1.021518503e-14
7.980600383e-15
5.670521812e-15
3.292070275e-15
8.787501777e-16
-1.505874052e-15
-3.768174605e-15
-5.789203073e-15
-7.434879571e-15
-8.571745624e-15
-9.087657933e-15
-8.915954512e-15
-8.060757129e-15
-6.620304779e-15
-4.804663345e-15
-2.943937582e-15
-1.483337663e-15
-9.62174592e-16
-1.975133571e-15
-5.115895887e-15
-1.090532507e-14
-1.970876478e-14
-3.164931508e-14
-4.652601584e-14
-6.374735097e-14
-8.229117845e-14
-1.007018388e-13
-1.17133914e-13
-1.294499005e-13
-1.35378247e-13
-1.327367743e-13
-1.197397573e-13
-9.538211766e-14
-5.992302412e-14
-1.496344722e-14
3.759729173e-14
7.036540804e-14
7.437727749e-14
7.806270761e-14
8.16801871e-14
8.528325655e-14
8.887778163e-14
9.245531596e-14
9.600936301e-14
9.953444718e-14
1.030269586e-13
1.06483936e-13
1.099022403e-13
1.132787447e-13
1.166097214e-13
1.19891348e-13
1.231197936e-13
1.26290867e-13
1.294003193e-13
1.324437495e-13
1.354167163e-13
1.383145392e-13
1.411321971e-13
1.438647674e-13
1.465069623e-13
1.490535622e-13
1.514985915e-13
1.53836414e-13
1.560608097e-13
1.581656605e-13
1.601441209e-13
1.619895404e-13
1.636946228e-13
1.6525199e-13
1.66653932e-13
1.678921406e-13
1.689582714e-13
1.698434986e-13
1.705384171e-13
1.710334041e-13
1.713183421e-13
1.713825295e-13
1.712147809e-13
1.708033171e-13
1.70135955e-13
1.69199628e-13
1.679806725e-13
1.664648787e-13
1.646370697e-13
1.62481231e-13
1.599806977e-13
1.571176288e-13
1.538733628e-13
1.50227977e-13
1.461606673e-13
1.416492438e-13
1.366702373e-13
1.311987627e-13
1.252084682e-13
1.186714856e-13
1.115582276e-13
1.038371177e-13
9.547492786e-14
8.64360698e-14
7.668299939e-14
6.617557632e-14
5.48714325e-14
4.272522025e-14
2.968882299e-14
1.571120185e-14
7.377721351e-16
-1.528926268e-14
-3.243151867e-14
-5.075442237e-14
-7.032790712e-14
-9.122592888e-14
-1.135276438e-13
-1.373168021e-13
-1.626827985e-13
-1.897205143e-13
-2.185310059e-13
-2.492215776e-13
-2.819062904e-13
-3.167065344e-13
-3.537507717e-13
-3.931760651e-13
-4.351273673e-13
-4.797589279e-13
-5.272341254e-13
-5.777261425e-13
-6.314188046e-13
-6.885067296e-13
-7.491959772e-13
-8.137047874e-13
-8.822639411e-13
-9.551175027e-13
-1.032523526e-12
-1.114754342e-12
-1.202097668e-12
-1.294856939e-12
-1.393352166e-12
-1.497920575e-12
-1.608917111e-12
-1.726715691e-12
-1.851709096e-12
-1.984310551e-12
-2.124953901e-12
-2.274094249e-12
-2.432209193e-12
-2.599799147e-12
-2.777388067e-12
-2.965524287e-12
-3.164781128e-12
-3.375757403e-12
-3.599078422e-12
-3.835396226e-12
-4.08539048e-12
-4.349768624e-12
-4.629267169e-12
-4.924651084e-12
-5.236715159e-12
-5.566283887e-12
-5.914212042e-12
-6.281384798e-12
-6.668717934e-12
-7.077158234e-12
-7.507682937e-12
-7.961300605e-12
-8.439050127e-12
-8.942001316e-12
-9.471253999e-12
-1.002793799e-11
-1.061321263e-11
-1.122826601e-11
-1.187431461e-11
-1.2552602e-11
-1.326439818e-11
-1.401099889e-11
-1.479372379e-11
-1.561391559e-11
-1.647293876e-11
-1.737217733e-11
-1.83130339e-11
-1.92969274e-11
-2.032529159e-11
-2.139957226e-11
-2.252122584e-11
-2.369171619e-11
-2.491251295e-11
-2.618508853e-11
-2.751091519e-11
-2.889146261e-11
-3.032819446e-11
-3.182256596e-11
-3.33760199e-11
-3.498998409e-11
-3.666586737e-11
-3.840505653e-11
-4.020891282e-11
-4.207876787e-11
-4.401592053e-11
-4.602163299e-11
-4.809712679e-11
-5.02435797e-11
-5.246212086e-11
-5.475382812e-11
-5.711972393e-11
-5.956077086e-11
-6.207786909e-11
-6.467185187e-11
-6.734348243e-11
-7.009345058e-11
-7.292236852e-11
-7.583076891e-11
-7.881910076e-11
-8.188772662e-11
-8.503692007e-11
-8.826686326e-11
-9.157764375e-11
-9.496925301e-11
-9.844158464e-11
-1.019944316e-10
-1.056274858e-10
-1.093403367e-10
-1.131324702e-10
-1.170032677e-10
-1.209520072e-10
-1.249778616e-10
-1.290799007e-10
-1.332570905e-10
-1.375082957e-10
-1.418322804e-10
-1.462277099e-10
-1.506931536e-10
-1.552270867e-10
-1.598278944e-10
-1.644938748e-10
-1.692232425e-10
-1.740141335e-10
-1.788646098e-10
-1.837726643e-10
-1.887362264e-10
-1.937531688e-10
-1.988213124e-10
-2.039384362e-10
-2.0910228e-10
-2.143105567e-10
-2.195609587e-10
-2.248511655e-10
-2.301788545e-10
-2.355417105e-10
-2.409374334e-10
-2.46363753e-10
-2.518184341e-10
-2.572992937e-10
-2.628042081e-10
-2.683311269e-10
-2.738780877e-10
-2.794432252e-10
-2.850247874e-10
-2.906211481e-10
-2.962308231e-10
-3.018524842e-10
-3.074849733e-10
-3.131273199e-10
-3.187787573e-10
-3.244387385e-10
-3.301069533e-10
-3.357833478e-10
-3.414681416e-10
-3.471618446e-10
-3.528652802e-10
-3.585796037e-10
-3.643063204e-10
-3.700473108e-10
-3.758048472e-10
-3.815816208e-10
-3.873807611e-10
-3.932058605e-10
-3.990609992e-10
-4.04950768e-10
-4.108802937e-10
-4.16855267e-10
-4.228819682e-10
-4.289672929e-10
-4.351187818e-10
-4.413446507e-10
-4.476538157e-10
-4.540559253e-10
-4.605613958e-10
-4.671814331e-10
-4.739280734e-10
-4.808142146e-10
-4.878536459e-10
-4.95061085e-10
-5.024522152e-10
-5.100437192e-10
-5.178533121e-10
-5.258997872e-10
-5.342030419e-10
-5.427841112e-10
-5.516651965e-10
-5.608695136e-10
-5.7042326e-10
-5.802788281e-10
-5.90543954e-10
-6.01302401e-10
-6.126780066e-10
-6.245059194e-10
-6.368172668e-10
-6.496468344e-10
-6.630308979e-10
-6.77007648e-10
-6.916171656e-10
-7.069015032e-10
-7.229047727e-10
-7.396732043e-10
-7.572548787e-10
-7.757210013e-10
-7.95428669e-10
-8.161495239e-10
-8.379369049e-10
-8.608512176e-10
-8.848775434e-10
-9.100937253e-10
-9.366183423e-10
-9.645187638e-10
-9.938645295e-10
-1.024728218e-09
-1.057185199e-09
-1.091313647e-09
-1.127194646e-09
-1.164912272e-09
-1.204553692e-09
-1.246209302e-09
-1.289972807e-09
-1.335941371e-09
-1.384215742e-09
-1.434900374e-09
-1.488103587e-09
-1.543937724e-09
-1.602519305e-09
-1.663969222e-09
-1.728412907e-09
-1.795980566e-09
-1.866807358e-09
-1.941033663e-09
-2.018805309e-09
-2.100273841e-09
-2.185596817e-09
-2.274938095e-09
-2.368468185e-09
-2.466364578e-09
-2.568812145e-09
-2.676003524e-09
-2.788139598e-09
-2.905429941e-09
-3.028093373e-09
-3.156358525e-09
-3.290464475e-09
-3.430661484e-09
-3.577211752e-09
-3.730390365e-09
-3.890486298e-09
-4.057803641e-09
-4.232662939e-09
-4.415402899e-09
-4.606382301e-09
-4.805982379e-09
-5.014609657e-09
-5.232699475e-09
-5.4607203e-09
-5.699179098e-09
-5.948628023e-09
-6.209672836e-09
-6.48298352e-09
-6.769307666e-09
-7.069487496e-09
-7.384481483e-09
-7.71539186e-09
-8.063499813e-09
-8.430310217e-09
-8.817609077e-09
-9.227536792e-09
-9.662682027e-09
-1.012620189e-08
-1.06219758e-08
-1.115480263e-08
-1.173065324e-08
-1.235699406e-08
-1.304320163e-08
-1.380109369e-08
-1.464560959e-08
-1.559568191e-08
-1.667535284e-08
-1.791520389e-08
-1.935418685e-08
-2.104196788e-08
-2.304192829e-08
-2.54350054e-08
-2.832460757e-08
-3.184290264e-08
-3.615886254e-08
-4.148855141e-08
-4.810828117e-08
-5.637142929e-08
-6.672993413e-08
-7.976176125e-08
-9.620599176e-08
-1.170076361e-07
-1.433748521e-07
-1.768519829e-07
-2.194127579e-07
-2.735791884e-07
-3.425731906e-07
-4.305098748e-07
-5.426438665e-07
-6.856830717e-07
-8.681882002e-07
-1.101081236e-06
-1.398292265e-06
-1.777581862e-06
-2.261586071e-06
-2.879143446e-06
-3.666979088e-06
-4.671840141e-06
-5.953201631e-06
-7.586691815e-06
-9.668424139e-06
-1.232046989e-05
-1.56977634e-05
-1.999680349e-05
-2.546660178e-05
-3.242243571e-05
-4.12630928e-05
-5.249244782e-05
-6.674639944e-05
-8.482641094e-05
-0.0001077411511
-0.0001367580228
-0.0001734666894
-0.0002198570604
-0.000278414569
-0.0003522359332
-0.0004451689172
-0.000561979841
-0.0007085526426
-0.0008921230927
-0.001121551445
-0.001407633594
-0.001763454501
-0.002204775417
-0.002750450676
-0.003422858694
-0.004248324014
-0.005257504174
-0.006485682043
-0.007972922185
-0.009764003642
-0.01190804343
-0.01445770569
-0.01746788313
-0.02099373563
-0.02508798033
-0.02979735081
-0.03515818201
-0.04119113397
-0.04789514397
-0.05524078137
-0.06316331795
-0.07155593387
-0.08026364757
-0.08907863424
-0.09773750112
-0.105920805
-0.1132539629
-0.1193079521
-0.1235965153
-0.1255657169
-0.124574722
-0.1198642438
-0.1105236699
-0.09546213915
-0.07340094474
-0.04290228171
-0.002477082516
0.04908805134
0.1118011433
0.1900543776
0.2741612974
0.4083723444
0.537991494
0.6548297835
0.6245422986
0.9630692224
1.61515296
3.038434728
5.764869804
9.974154968
14.55167787
16.81934999
14.77805345
9.849673702
5.156201857
2.167231838
1.585701604
1.338592581
1.635629013
2.06449219
2.587582289
2.675194914
2.466315814
2.010707349
1.644044301
1.101931865
0.609070744
0.2019697331
-0.09493928211
-0.2522721721
-0.3164053649
-0.3071945741
-0.2745602195
-0.2268163823
-0.1795911741
-0.1375240057
-0.10289991
-0.07576705939
-0.05523408737
-0.0398295904
-0.02822127122
-0.01985377607
-0.01390928272
-0.009690700591
-0.006744658299
-0.004697073436
-0.003284162951
-0.002297783028
-0.001609386971
-0.001115062852
-0.0007707892421
-0.0005352468009
-0.0003705684354
-0.0002558727033
-0.0001762732474
-0.000121197498
-8.318692272e-05
-5.699351962e-05
-3.900182576e-05
-2.66498654e-05
-1.818087987e-05
-1.238199895e-05
-8.416890273e-06
-5.709485013e-06
-3.863323106e-06
-2.606650713e-06
-1.753378052e-06
-1.175539703e-06
-7.853184311e-07
-5.225837951e-07
-3.462540297e-07
-2.283258312e-07
-1.497564231e-07
-9.762894678e-08
-6.32051933e-08
-4.059065481e-08
-2.582128719e-08
-1.62401316e-08
-1.007276802e-08
-6.138876834e-09
-3.656775058e-09
-2.111317162e-09
-1.164881171e-09
-5.975771313e-10
-2.672227391e-10
-8.265201418e-11
1.401057696e-11
5.906765986e-11
7.495467818e-11
7.527772533e-11
6.808515039e-11
5.797572921e-11
4.744479936e-11
3.773448754e-11
2.936361674e-11
2.245250951e-11
1.691781903e-11
1.258603088e-11
9.257005707e-12
6.736920454e-12
4.853715924e-12
3.462461767e-12
2.445334571e-12
1.708997619e-12
1.180977217e-12
8.059019326e-13
5.420364251e-13
3.582934179e-13
2.31756701e-13
1.456940651e-13
8.799870439e-14
4.99869282e-14
2.548411719e-14
1.013834282e-14
9.104790702e-16
-4.300922313e-15
-6.933158041e-15
-7.957144831e-15
-8.019257799e-15
-7.542238897e-15
-6.796403596e-15
-5.94946524e-15
-5.101085976e-15
-4.306602636e-15
-3.593141322e-15
-2.970424843e-15
-2.437912576e-15
-1.989430587e-15
-1.616103258e-15
-1.308150142e-15
-1.055936252e-15
-8.505405351e-16
-6.84020944e-16
-5.494950337e-16
-4.411137283e-16
-3.539782923e-16
-2.840317449e-16
-2.279435665e-16
-1.829984684e-16
-1.46994843e-16
-1.181553072e-16
-9.504983766e-17
-7.653091651e-17
-6.167955747e-17
-4.976086507e-17
-4.018773863e-17
-3.249143187e-17
-2.62977931e-17
-2.13081688e-17
-1.728410467e-17
-1.403512075e-17
-1.140896064e-17
-9.283824622e-18
-7.562188402e-18
-6.165886381e-18
-5.03220138e-18
-4.110754491e-18
-3.361030447e-18
-2.750407564e-18
-2.252588216e-18
-1.846347317e-18
-1.514533392e-18
-1.24327039e-18
-1.021319156e-18
-8.395660179e-19
-6.906126599e-19
-5.684468196e-19
-4.681775318e-19
-3.858220025e-19
-3.181338254e-19
-2.624643494e-19
-2.16650663e-19
-1.789249766e-19
-1.478412306e-19
-1.222155877e-19
-1.010781294e-19
-8.363360616e-20
-6.922951246e-20
-5.733009261e-20
-4.749515692e-20
-3.936280156e-20
-3.263530047e-20
-2.70675773e-20
-2.245777785e-20
-1.863955424e-20
-1.547574505e-20
-1.285319537e-20
-1.067850786e-20
-8.874555257e-21
-7.377616014e-21
-6.1350201e-21
-5.103213024e-21
-4.246162788e-21
-3.534048273e-21
-2.942178741e-21
-2.450103251e-21
-2.040876223e-21
-1.700451461e-21
-1.417181936e-21
-1.181406658e-21
-9.851093378e-22
-8.216362165e-22
-6.85462728e-22
-5.720004473e-22
-4.774373131e-22
-3.986053354e-22
-3.328710196e-22
-2.78044572e-22
-2.323046425e-22
-1.941359226e-22
-1.622773875e-22
-1.356793504e-22
-1.134678194e-22
-9.491490582e-23
-7.941424841e-23
-6.646059811e-23
-5.563285406e-23
-4.65799634e-23
-3.900919837e-23
-3.26764072e-23
-2.737790458e-23
-2.294372397e-23
-1.923200196e-23
-1.612430332e-23
-1.352172851e-23
-1.13416716e-23
-9.515119561e-24
-7.9844018e-24
-6.701314555e-24
-5.625557276e-24
-4.72342883e-24
-3.966740095e-24
-3.331906817e-24
-2.799192668e-24
-2.352077503e-24
-1.976729964e-24
-1.661567117e-24
-1.396886651e-24
-1.174559624e-24
-9.877737259e-25
-8.308186966e-25
-6.989069393e-25
-5.880235204e-25
-4.94800709e-25
-4.164130175e-25
-3.504893738e-25
-2.950396068e-25
-2.483929025e-25
-2.091462643e-25
-1.761213442e-25
-1.483282752e-25
-1.249353614e-25
-1.052436721e-25
-8.866574144e-26
-7.470770444e-26
-6.295431295e-26
-5.305636373e-26
-4.472014802e-26
-3.769859526e-26
-3.178383774e-26
-2.680096638e-26
-2.260278612e-26
-1.906540958e-26
-1.608455451e-26
-1.357243188e-26
-1.145513011e-26
-9.670415369e-27
-8.165882202e-27
-6.897397889e-27
-5.82779378e-27
-4.925764305e-27
-4.164940513e-27
-3.523110429e-27
-2.981562805e-27
-2.52453461e-27
-2.138745953e-27
-1.813008543e-27
-1.537895794e-27
-1.30546527e-27
-1.109024712e-27
-9.429350999e-28
-8.024447207e-28
-6.8354935e-28
-5.828746008e-28
-4.975766123e-28
-4.25258578e-28
-3.639003074e-28
-3.117989483e-28
-2.675190132e-28
-2.29850198e-28
-1.977719925e-28
-1.704238445e-28
-1.470798659e-28
-1.271277114e-28
-1.100506647e-28
-9.541262373e-29
-8.284539641e-29
-7.203802212e-29
-6.272776691e-29
-5.469255918e-29
-4.774460243e-29
-4.172499645e-29
-3.649919436e-29
-3.195318972e-29
-2.799034898e-29
-2.452863957e-29
-2.149837077e-29
-1.884030008e-29
-1.65039626e-29
-1.444634936e-29
-1.263075033e-29
-1.102578118e-29
-9.604560924e-30
-8.344027508e-30
-7.224358321e-30
-6.228489523e-30
-5.341682111e-30
-4.551199969e-30
-3.84599371e-30
-3.216461874e-30
-2.654232874e-30
-2.152000968e-30
-1.703360132e-30
-1.302687777e-30
-9.450286413e-31
-6.260062103e-31
-3.417476244e-31
-8.880527437e-32
1.358803645e-31
3.350447953e-31
5.111386085e-31
6.663537104e-31
8.026702023e-31
9.21865506e-31
1.025544771e-30
1.115162188e-30
1.192036523e-30
1.257361358e-30
1.312227747e-30
1.357623758e-30
1.394448399e-30
1.42352597e-30
1.445608577e-30
1.461382129e-30
1.471473466e-30
1.476460375e-30
1.476864363e-30
1.473167652e-30
1.465809947e-30
1.455195278e-30
1.44169134e-30
1.425635449e-30
1.407337038e-30
1.387076941e-30
1.365113439e-30
1.341684529e-30
1.31700526e-30
1.291268302e-30
1.264655299e-30
1.237327348e-30
1.209431903e-30
1.181103477e-30
1.152461799e-30
1.123616952e-30
1.094669379e-30
1.065706659e-30
1.036809213e-30
1.008049222e-30
9.794887753e-31
9.511857058e-31
9.231900958e-31
8.955472034e-31
8.682948199e-31
8.414674798e-31
8.150936507e-31
7.89198518e-31
7.638032422e-31
7.389255264e-31
7.145806204e-31
6.907803018e-31
6.675324422e-31
6.448439715e-31
6.22718776e-31
6.011594019e-31
5.801667421e-31
5.59739509e-31
5.398753295e-31
5.205708847e-31
5.018212088e-31
4.836209132e-31
4.659629447e-31
4.488397822e-31
4.322435279e-31
4.161650801e-31
4.005952474e-31
3.855243435e-31
3.709423383e-31
3.568389327e-31
3.432035911e-31
3.300255149e-31
3.172943247e-31
3.049983811e-31
2.931262395e-31
2.816673399e-31
2.706105573e-31
2.599449929e-31
2.496598348e-31
2.397441843e-31
2.301869205e-31
2.209773991e-31
2.121053968e-31
2.035605597e-31
1.953327939e-31
1.874122243e-31
1.797887389e-31
1.724528799e-31
1.65395065e-31
1.586062762e-31
1.520775621e-31
1.458000929e-31
1.397653748e-31
1.33964915e-31
1.283907249e-31
1.230348306e-31
1.178894702e-31
1.129473004e-31
1.082010407e-31
1.036435062e-31
9.926789036e-32
9.506750692e-32
9.103592566e-32
8.716697891e-32
8.345454546e-32
7.98928068e-32
7.64760536e-32
7.319876773e-32
7.005575585e-32
6.704179423e-32
6.415202517e-32
6.138159748e-32
5.872593044e-32
5.618050222e-32
5.37410788e-32
5.140349772e-32
4.916364104e-32
4.701772736e-32
4.496202137e-32
4.299290015e-32
4.110691569e-32
3.930079648e-32
3.757124865e-32
3.591517006e-32
3.432965515e-32
3.281177003e-32
3.135883347e-32
2.99681753e-32
2.863727034e-32
2.736358335e-32
2.614478113e-32
2.497859656e-32
2.386286175e-32
2.279545377e-32
2.177436463e-32
2.079767125e-32
1.986353962e-32
1.897016738e-32
1.811585003e-32
1.729892944e-32
1.651781668e-32
1.577100097e-32
1.505702763e-32
1.437455227e-32
1.372219648e-32
1.309866996e-32
1.25027117e-32
1.193314403e-32
1.138885251e-32
1.086877715e-32
1.037186182e-32
9.897105333e-33
9.443518281e-33
9.010196289e-33
8.596286012e-33
8.200925246e-33
7.82329089e-33
7.46262286e-33
7.118192425e-33
6.789279341e-33
6.475208916e-33
6.175334301e-33
5.889023137e-33
5.615685119e-33
5.354744374e-33
5.10563173e-33
4.867854513e-33
4.640893027e-33
4.424268065e-33
4.217518866e-33
4.020215407e-33
3.831943864e-33
3.652279913e-33
3.480852589e-33
3.317291994e-33
3.161245867e-33
3.012372599e-33
2.870354649e-33
2.734894925e-33
2.605682974e-33
2.482439015e-33
2.364897317e-33
2.252797068e-33
2.145893874e-33
2.043949017e-33
1.946736873e-33
1.85404566e-33
1.765669166e-33
1.681408911e-33
1.601082075e-33
1.524512156e-33
1.451521681e-33
1.381945672e-33
1.315626218e-33
1.252411622e-33
1.192160231e-33
1.134739465e-33
1.080022182e-33
1.027873244e-33
9.781836907e-34
9.308350782e-34
8.857179061e-34
8.427290669e-34
8.017642236e-34
7.627282378e-34
7.255293467e-34
6.900768384e-34
6.562798462e-34
6.240499161e-34
5.933020009e-34
5.639444933e-34
5.358858867e-34
5.090229754e-34
4.832421973e-34
4.58419811e-34
4.344099172e-34
4.110430993e-34
3.881341317e-34
3.654687795e-34
3.428647821e-34
3.202006704e-34
2.976061805e-34
2.757630845e-34
2.565754703e-34
1.566215846e-34
1.098420324e-34
5.334205357e-35
2.528492864e-35
1.183367977e-35
5.458644376e-36
2.478342754e-36
1.104838972e-36
4.818180273e-37
2.048631937e-37
8.457686814e-38
3.329282265e-38
1.234945337e-38
4.116916663e-39
1.115226188e-39
1.191733883e-40
-1.396923993e-40
-1.537079035e-40
-1.133424639e-40
-7.149249549e-41
-4.268785593e-41
-2.352777819e-41
-1.290569082e-41
-6.388913681e-42
-3.355331722e-42
-1.64115379e-42
-8.050765104e-43
-3.920929284e-43
-1.864530759e-43
-8.720177085e-44
-4.049315963e-44
-1.815212342e-44
-8.555145414e-45
-3.45413224e-45
-1.454165393e-45
-5.544688935e-46
-3.705433528e-46
-1.468649967e-46
-6.010164865e-47
-1.489872247e-47
-4.947659421e-48
8.087688235e-48
-7.66333372e-48
-8.591007005e-48
1.231859948e-48
-2.890189954e-48
-3.954883802e-48
4.048680995e-48
-4.146845806e-48
-1.031385705e-48
-1.409811808e-50
-1.205812061e-49
2.321977742e-49
-6.381840548e-50
1.461599282e-50
-1.174254336e-49
-2.993210516e-50
6.105054408e-50
3.368477067e-50
-2.576820802e-50
-3.367558694e-50
-2.234790172e-50
2.1007626e-51
-8.526928026e-51
-3.356031665e-51
-1.841720845e-51
5.781204863e-52
-2.989517299e-52
-3.195651154e-52
2.942682644e-53
-3.074268383e-52
-2.473278264e-52
5.983234487e-52
4.561595267e-52
-2.831826632e-51
-1.648058401e-51
4.417669807e-51
-2.19411281e-51
1.130612845e-51
-1.217351039e-51
2.183415868e-51
-3.509039178e-52
-1.351436958e-51
2.424878167e-52
9.598845806e-52
-5.582567362e-52
-5.26299277e-54
-6.309480614e-53
-2.14598185e-52
-5.862045949e-53
5.382231501e-52
1.545508014e-53
1.214817115e-52
2.630870851e-54
6.706773139e-53
1.412900068e-53
-5.778609621e-53
-5.485992469e-53
8.611879594e-55
8.25983715e-53
1.477934367e-54
-3.689005304e-53
3.219497455e-54
-4.563023974e-53
-4.256956038e-53
-2.902123527e-53
-5.4434625e-53
-9.69130841e-53
1.132378497e-52
2.165945412e-54
6.930138337e-54
8.133647771e-54
8.436765947e-55
4.414115492e-53
6.535745495e-55
3.509247119e-56
1.071789778e-53
2.769061651e-55
3.187786223e-53
1.238678639e-53
-2.126788513e-53
1.083343825e-53
-3.306138133e-53
5.098141189e-55
8.692588039e-54
-1.69819736e-55
-1.743168743e-53
1.330635076e-53
1.59292893e-55
-4.036923449e-54
-8.008507686e-57
-3.643705198e-53
3.238741336e-53
7.546615864e-55
-1.122994152e-53
1.974138402e-53
-1.980746415e-53
-6.519722763e-54
6.99750659e-53
1.438080987e-53
-5.711407479e-53
3.103956724e-55
-5.947469682e-53
2.427321159e-53
-1.489057405e-53
-1.747071983e-52
-2.331199407e-53
1.75979809e-52
6.086273017e-53
6.820408085e-53
6.598311368e-53
1.948001302e-54
-5.495815004e-53
-8.207102154e-53
-7.400531683e-53
-3.577218708e-53
3.555595966e-54
-7.110700497e-53
1.199587312e-52
-4.652056649e-53
1.040416069e-52
-4.913748416e-53
1.418344481e-52
1.495301077e-52
-5.268087299e-53
-9.909513325e-53
3.59332382e-55
5.764813408e-55
-1.281287655e-53
1.191048771e-52
-5.542342095e-53
-7.350975098e-53
-4.905739011e-54
-1.257634849e-53
-3.350727848e-53
-1.50719321e-52
-5.257399534e-53
4.574448811e-53
9.951058872e-53
3.638359664e-53
7.411358709e-53
4.20458032e-54
-6.459143762e-54
1.548548376e-53
2.007576396e-52
-2.194368863e-53
4.384239726e-53
4.779463653e-55
3.822240244e-53
-2.560939153e-53
1.045529425e-52
6.159002934e-53
-1.657293117e-53
1.016878038e-52
6.474715183e-53
5.378179797e-53
-2.747178263e-53
2.782285426e-53
3.663546523e-53
-5.004330458e-53
-1.42268563e-53
-6.273839643e-53
1.434661716e-53
-2.705216218e-53
-5.250425477e-53
-7.023944818e-53
-1.911834655e-53
5.354049903e-53
2.03615073e-54
-8.951753636e-54
2.914320482e-53
5.342949962e-53
-5.593552297e-54
-6.781832803e-54
-5.753660553e-54
8.890808213e-53
6.159205237e-55
3.367826598e-53
2.089436964e-55
-2.977964633e-55
2.057232951e-53
1.160388774e-53
-1.488606386e-55
8.407950978e-54
-5.052503329e-54
2.821760166e-54
1.082697767e-53
1.041049293e-53
-3.898961539e-53
-1.077963107e-53
7.536607484e-55
-4.279183865e-55
2.494864214e-56
2.632373002e-53
5.062722216e-54
-6.451801976e-53
3.631817959e-54
-7.522085123e-54
-8.403360032e-54
-1.152838483e-54
-3.795106977e-53
-1.448577484e-55
-9.895067192e-57
4.313998182e-54
-2.498420603e-53
-5.052047878e-54
-5.594183612e-53
-9.889403973e-53
1.349984235e-53
-6.20127565e-54
)
;

boundaryField
{
    inlet
    {
        type            calculated;
        value           uniform 0;
    }
    outlet
    {
        type            calculated;
        value           uniform -6.201275757e-54;
    }
    wall
    {
        type            empty;
    }
}


// ************************************************************************* //
