/*--------------------------------*- C++ -*----------------------------------*\
  =========                 |
  \\      /  F ield         | OpenFOAM: The Open Source CFD Toolbox
   \\    /   O peration     | Website:  https://openfoam.org
    \\  /    A nd           | Version:  7
     \\/     M anipulation  |
\*---------------------------------------------------------------------------*/
FoamFile
{
    version     2.0;
    format      ascii;
    class       volScalarField;
    location    "0.000558243009";
    object      ddt0(rho,CO);
}
// * * * * * * * * * * * * * * * * * * * * * * * * * * * * * * * * * * * * * //

dimensions      [1 -3 -1 0 0 0 0];

internalField   nonuniform List<scalar> 
1500
(
-1.703264467e-05
-5.338163114e-05
-8.299597112e-05
-8.717491917e-05
-6.950713201e-05
-4.479491308e-05
-2.427182466e-05
-1.137079032e-05
-4.723147719e-06
-1.817304376e-06
-7.340764031e-07
-4.100665512e-07
-3.601376534e-07
-3.941716344e-07
-4.451090765e-07
-4.914490704e-07
-5.266723371e-07
-5.488980944e-07
-5.577283625e-07
-5.533245549e-07
-5.361531914e-07
-5.069077618e-07
-4.664720504e-07
-4.158924895e-07
-3.563522172e-07
-2.891464043e-07
-2.156598126e-07
-1.373474489e-07
-5.571843658e-08
2.767759287e-08
1.112630103e-07
1.934454622e-07
2.726338425e-07
3.472586183e-07
4.157973947e-07
4.768059018e-07
5.28953721e-07
5.710627241e-07
6.021462385e-07
6.214459522e-07
6.284635769e-07
6.229845311e-07
6.050914191e-07
5.751658491e-07
5.33878093e-07
4.821650404e-07
4.211977901e-07
3.523409949e-07
2.771065282e-07
1.97104264e-07
1.139927365e-07
2.943207192e-08
-5.495886468e-08
-1.376397582e-07
-2.17179822e-07
-2.922823266e-07
-3.618029166e-07
-4.247622935e-07
-4.803539762e-07
-5.279478387e-07
-5.670900192e-07
-5.974996038e-07
-6.190623677e-07
-6.318216079e-07
-6.359661374e-07
-6.318154127e-07
-6.19801978e-07
-6.004515267e-07
-5.743611626e-07
-5.421766767e-07
-5.045698565e-07
-4.622169749e-07
-4.157796204e-07
-3.658889336e-07
-3.131341137e-07
-2.580556864e-07
-2.011437199e-07
-1.428407106e-07
-8.354851896e-08
-2.363843473e-08
3.653679815e-08
9.663022361e-08
1.562884253e-07
2.151409181e-07
2.727920633e-07
3.288161823e-07
3.827562195e-07
4.341260513e-07
4.824162705e-07
5.271030317e-07
5.676594005e-07
6.035685154e-07
6.343378062e-07
6.595134806e-07
6.786945464e-07
6.915456072e-07
6.978078661e-07
6.973077559e-07
6.899628728e-07
6.757849347e-07
6.548797286e-07
6.274441563e-07
5.937606463e-07
5.541893687e-07
5.091587924e-07
4.591551893e-07
4.047117376e-07
3.463978136e-07
2.848089675e-07
2.205579876e-07
1.542672492e-07
8.656238465e-08
1.806718025e-08
-5.060060074e-08
-1.188327746e-07
-1.860340933e-07
-2.516257421e-07
-3.150492852e-07
-3.757712369e-07
-4.332882856e-07
-4.871330727e-07
-5.368802657e-07
-5.821526225e-07
-6.226266265e-07
-6.580372997e-07
-6.881818493e-07
-7.129218879e-07
-7.321840868e-07
-7.459592715e-07
-7.543000871e-07
-7.573174828e-07
-7.551763511e-07
-7.480906898e-07
-7.363186357e-07
-7.201576782e-07
-6.999402601e-07
-6.76029829e-07
-6.488173204e-07
-6.187178516e-07
-5.861673743e-07
-5.516188996e-07
-5.155379199e-07
-4.783966827e-07
-4.406670062e-07
-4.028115463e-07
-3.652735079e-07
-3.284650412e-07
-2.927547437e-07
-2.5845491e-07
-2.258092655e-07
-1.949820793e-07
-1.660495503e-07
-1.389943682e-07
-1.137041354e-07
-8.997428053e-08
-6.751567446e-08
-4.596703739e-08
-2.49116791e-08
-3.898008084e-09
1.753727877e-08
3.984449137e-08
6.343621617e-08
8.866405209e-08
1.157983278e-07
1.450121524e-07
1.763710012e-07
2.098285446e-07
2.452291671e-07
2.823170505e-07
3.207512366e-07
3.601256317e-07
3.999924746e-07
4.398874795e-07
4.793547691e-07
5.179696164e-07
5.553571848e-07
5.912058834e-07
6.252742964e-07
6.57391335e-07
6.874498153e-07
7.153943716e-07
7.41205087e-07
7.648786611e-07
7.864091792e-07
8.057705172e-07
8.229022335e-07
8.377004462e-07
8.500145039e-07
8.596498666e-07
8.6637678e-07
8.699439404e-07
8.70095842e-07
8.66592301e-07
8.592285741e-07
8.478546313e-07
8.323922597e-07
8.128490202e-07
7.893283106e-07
7.620349594e-07
7.312757742e-07
6.97454741e-07
6.610622054e-07
6.226576531e-07
5.828458216e-07
5.422461047e-07
5.014562094e-07
4.610116183e-07
4.213439615e-07
3.827423817e-07
3.453232313e-07
3.090140832e-07
2.735579577e-07
2.385426025e-07
2.034576938e-07
1.677793846e-07
1.31077433e-07
9.31355312e-08
5.40706375e-08
1.443304437e-08
-2.473323308e-08
-6.189040402e-08
-9.50848003e-08
-1.221142258e-07
-1.407866901e-07
-1.492602957e-07
-1.464401515e-07
-1.323939566e-07
-1.087352373e-07
-7.891422181e-08
-4.835271802e-08
-2.436308305e-08
-1.580323158e-08
-3.244056918e-08
-8.402601486e-08
-1.791145396e-07
-3.237070637e-07
-5.198270514e-07
-7.641802706e-07
-1.047074066e-06
-1.351792456e-06
-1.654636268e-06
-1.925850734e-06
-2.131674454e-06
-2.237759998e-06
-2.214103675e-06
-2.041432763e-06
-1.717660345e-06
-1.26228742e-06
-7.082806175e-07
-7.38724478e-08
3.022410831e-07
3.650379852e-07
3.98301003e-07
4.233990789e-07
4.45908263e-07
4.671006631e-07
4.870616336e-07
5.055518055e-07
5.22209195e-07
5.366870719e-07
5.486928567e-07
5.57986567e-07
5.643720408e-07
5.676683452e-07
5.677020789e-07
5.642981623e-07
5.572683951e-07
5.464142522e-07
5.315250351e-07
5.123801818e-07
4.887465742e-07
4.603772807e-07
4.270189444e-07
3.884040974e-07
3.442581116e-07
2.942853555e-07
2.381869222e-07
1.756451064e-07
1.063343895e-07
2.990745873e-08
-5.398989128e-08
-1.457329227e-07
-2.457089503e-07
-3.543217537e-07
-4.71996253e-07
-5.991695217e-07
-7.362983905e-07
-8.838613155e-07
-1.042352658e-06
-1.212287468e-06
-1.394203169e-06
-1.588658076e-06
-1.796233377e-06
-2.017530098e-06
-2.25317715e-06
-2.503826624e-06
-2.770152983e-06
-3.052859997e-06
-3.352678521e-06
-3.670363277e-06
-4.006701367e-06
-4.362506144e-06
-4.738624195e-06
-5.135928655e-06
-5.55532711e-06
-5.997759265e-06
-6.464198572e-06
-6.955652317e-06
-7.473161597e-06
-8.017803708e-06
-8.590695542e-06
-9.192986752e-06
-9.825870159e-06
-1.049057353e-05
-1.118836855e-05
-1.192056284e-05
-1.268851048e-05
-1.349360628e-05
-1.433728594e-05
-1.522103387e-05
-1.614637472e-05
-1.711488057e-05
-1.812816739e-05
-1.91879032e-05
-2.029579614e-05
-2.145361013e-05
-2.266315033e-05
-2.392627611e-05
-2.524489346e-05
-2.662096127e-05
-2.805648697e-05
-2.955352919e-05
-3.111420111e-05
-3.274065951e-05
-3.443512364e-05
-3.619985583e-05
-3.803717765e-05
-3.994945895e-05
-4.193912085e-05
-4.400864118e-05
-4.616054783e-05
-4.839742013e-05
-5.072189158e-05
-5.313664558e-05
-5.564441746e-05
-5.824799551e-05
-6.09502144e-05
-6.37539626e-05
-6.666217591e-05
-6.96778399e-05
-7.280398822e-05
-7.604369845e-05
-7.940010059e-05
-8.287636176e-05
-8.647570024e-05
-9.020137468e-05
-9.40566815e-05
-9.804496272e-05
-0.0001021695976
-0.0001064340016
-0.0001108416275
-0.0001153959622
-0.0001201005225
-0.0001249588596
-0.0001299745508
-0.0001351512027
-0.0001404924418
-0.0001460019271
-0.0001516833277
-0.0001575403375
-0.0001635766645
-0.000169796032
-0.0001762021745
-0.0001827988348
-0.0001895897666
-0.0001965787205
-0.000203769458
-0.0002111657325
-0.0002187713009
-0.0002265899096
-0.0002346252983
-0.0002428811978
-0.0002513613236
-0.0002600693804
-0.0002690090486
-0.0002781839888
-0.0002875978449
-0.000297254229
-0.0003071567285
-0.0003173089052
-0.0003277142808
-0.0003383763491
-0.000349298565
-0.0003604843516
-0.0003719370846
-0.0003836601072
-0.0003956567115
-0.0004079301533
-0.0004204836433
-0.0004333203427
-0.0004464433704
-0.0004598557937
-0.0004735606406
-0.0004875608839
-0.000501859456
-0.0005164592377
-0.0005313630655
-0.0005465737347
-0.0005620939904
-0.0005779265403
-0.0005940740512
-0.000610539149
-0.0006273244314
-0.0006444324523
-0.0006618657448
-0.0006796268191
-0.0006977181528
-0.0007161422172
-0.000734901465
-0.0007539983455
-0.00077343531
-0.0007932148054
-0.0008133393027
-0.0008338112873
-0.00085463327
-0.0008758077989
-0.0008973374722
-0.0009192249334
-0.0009414728943
-0.0009640841472
-0.0009870615587
-0.001010408101
-0.001034126858
-0.001058221032
-0.001082693961
-0.001107549143
-0.001132790231
-0.001158421072
-0.0011844457
-0.001210868373
-0.001237693582
-0.001264926065
-0.001292570838
-0.001320633203
-0.001349118779
-0.00137803352
-0.001407383734
-0.00143717611
-0.001467417746
-0.001498116167
-0.00152927935
-0.001560915763
-0.00159303437
-0.001625644701
-0.001658756821
-0.001692381415
-0.0017265298
-0.001761213944
-0.001796446518
-0.001832240931
-0.001868611337
-0.001905572726
-0.001943140894
-0.001981332544
-0.002020165278
-0.002059657663
-0.002099829284
-0.002140700752
-0.002182293777
-0.002224631196
-0.00226773704
-0.00231163657
-0.002356356315
-0.002401924146
-0.002448369315
-0.002495722512
-0.002544015912
-0.002593283249
-0.002643559864
-0.002694882746
-0.00274729063
-0.002800824047
-0.002855525365
-0.002911438895
-0.002968610914
-0.003027089781
-0.003086925977
-0.003148172194
-0.003210883416
-0.003275116982
-0.003340932668
-0.003408392791
-0.003477562282
-0.003548508767
-0.003621302666
-0.003696017312
-0.003772729
-0.003851517109
-0.003932464261
-0.004015656322
-0.00410118261
-0.004189135995
-0.00427961298
-0.004372713856
-0.004468542851
-0.004567208237
-0.004668822422
-0.004773502166
-0.004881368608
-0.004992547321
-0.00510716802
-0.005225362418
-0.005347306016
-0.005472380718
-0.005601534996
-0.005735496528
-0.005875392327
-0.00601941213
-0.006167684323
-0.006320389749
-0.006477717818
-0.006639868508
-0.00680705158
-0.006979487603
-0.007157408794
-0.007341060526
-0.007530693973
-0.00772676273
-0.007932713236
-0.008145945163
-0.008366680619
-0.008595267423
-0.008831234265
-0.009075043686
-0.009327624507
-0.009589359608
-0.009860626114
-0.01014182859
-0.01043339613
-0.01073578265
-0.01104946885
-0.01137496439
-0.01171281038
-0.0120635827
-0.01242789494
-0.01280640238
-0.01319980623
-0.01360885816
-0.0140343657
-0.01447719823
-0.01493829346
-0.01541866513
-0.01591941114
-0.01644172334
-0.01698689781
-0.01755634709
-0.01815161347
-0.0187743842
-0.01942650858
-0.02011001702
-0.02082714282
-0.02158034642
-0.02237234284
-0.02320613247
-0.02408503613
-0.0250127339
-0.02599330957
-0.02703130022
-0.02813175222
-0.02930028461
-0.0305431597
-0.03186736374
-0.03328069668
-0.0347918742
-0.0364106416
-0.03814790338
-0.04001586781
-0.04202821079
-0.04420025948
-0.04654919983
-0.04909430961
-0.05185722105
-0.05486221609
-0.05813655889
-0.06171087008
-0.06561954728
-0.06990123866
-0.07459937539
-0.07976276995
-0.0854462903
-0.09171161503
-0.0986280856
-0.1062736612
-0.1147359932
-0.124113632
-0.1345173823
-0.1460718248
-0.1589170259
-0.1732104554
-0.1891291403
-0.2068720802
-0.2266629577
-0.248753179
-0.2734252811
-0.300996753
-0.331824319
-0.3663087348
-0.4049001627
-0.4481041876
-0.4964885551
-0.5506907022
-0.6114261965
-0.6794981555
-0.7558077875
-0.8413661574
-0.9373073385
-1.044903074
-1.165579144
-1.300933616
-1.452757156
-1.623055663
-1.814075445
-2.028331183
-2.26863701
-2.538140955
-2.840363152
-3.179238052
-3.559161144
-3.985040401
-4.462353033
-4.997207755
-5.596413069
-6.267551938
-7.019063152
-7.860329581
-8.801773786
-9.854960698
-11.03270748
-12.34920032
-13.82011718
-15.46275598
-17.29616606
-19.34128134
-21.62105192
-24.16056987
-26.98718438
-30.13059964
-33.62294602
-37.49881506
-41.79524393
-46.55163414
-51.8095841
-57.61261332
-64.00575013
-71.03495342
-78.74633119
-87.1851184
-96.39443142
-106.4134251
-117.2756061
-129.0062487
-141.61962
-155.1157302
-169.4765552
-184.6623702
-200.6068952
-217.2131608
-234.3490309
-251.8431464
-269.4815423
-287.0053467
-304.109987
-320.4463542
-335.6243385
-349.219046
-360.7798631
-369.8423562
-375.9425596
-378.6333002
-377.5014134
-372.1848878
-362.3886775
-347.8977349
-328.5871558
-304.4265733
-275.4809736
-241.906394
-203.9411521
-161.8963091
-116.1407628
-67.09194478
-15.20499692
39.03508464
95.12553278
152.573732
210.9698797
270.027525
332.7161249
395.0049186
474.6083929
539.9366891
586.2738976
580.3296445
660.4764869
730.101962
792.4667594
851.3667423
909.4523199
970.8649232
1029.138862
1090.934184
1165.755675
1196.866742
1275.102989
1222.673287
1270.695811
1299.151778
1336.374242
1276.875479
1280.410595
1258.918032
1228.837677
1095.48147
1000.900283
856.8271251
662.2617507
412.5926943
108.6015502
-238.9801662
-591.6164258
-985.7006192
-1363.286469
-1746.023102
-2111.663706
-2457.820801
-2785.623961
-3096.371817
-3337.150376
-3379.202007
-3389.161552
-3358.871472
-3269.009115
-3169.139926
-3145.035609
-3221.773378
-3388.750392
-3608.824964
-3424.054912
-3248.910201
-3295.431143
-3260.576278
-3175.23421
-3064.575876
-2944.839731
-2825.135818
-2700.21911
-2587.873395
-2479.095333
-2373.868132
-2272.08318
-2173.612568
-2078.384987
-1986.389321
-1897.655915
-1812.233884
-1730.182404
-1651.526239
-1576.274236
-1504.411944
-1435.89988
-1370.675457
-1308.654549
-1249.737903
-1193.813401
-1140.759873
-1090.450908
-1042.757275
-997.549112
-954.6978453
-914.0775599
-875.5660006
-839.045296
-804.40244
-771.5295819
-740.3241752
-710.6890069
-682.5321393
-655.7668009
-630.3112218
-606.0884461
-583.0261223
-561.0562844
-540.1151297
-520.1427944
-501.0831336
-482.8835072
-465.494575
-448.8700936
-432.9667326
-417.7438886
-403.163518
-389.1899744
-375.7898538
-362.9318537
-350.5866369
-338.7267034
-327.3262727
-316.3611698
-305.8087237
-295.6476647
-285.8580385
-276.4211149
-267.3193112
-258.5361135
-250.0560122
-241.86443
-233.9476673
-226.292839
-218.8878255
-211.7212222
-204.7822912
-198.0609202
-191.5475817
-185.2332937
-179.1095867
-173.1684702
-167.4024001
-161.8042542
-156.3673014
-151.0851796
-145.9518724
-140.9616842
-136.1092253
-131.3893884
-126.7973336
-122.3284709
-117.9784452
-113.7431229
-109.6185763
-105.6010736
-101.6870651
-97.87294621
-94.15595305
-90.53275675
-87.00052896
-83.55644025
-80.19783984
-76.92219014
-73.72707198
-70.61016963
-67.56927299
-64.60226548
-61.70712134
-58.88190019
-56.1247441
-53.43386995
-50.80756905
-48.24420122
-45.74219219
-43.30002784
-40.91625562
-38.58947747
-36.31834817
-34.10157454
-31.93791032
-29.82615505
-27.76515227
-25.75378715
-23.79098347
-21.87570446
-20.00694656
-18.18374319
-16.40515895
-14.67028984
-12.97826243
-11.32823101
-9.719377509
-8.15090834
-6.622057965
-5.13208227
-3.680259913
-2.265892101
-0.8883009904
0.4531720056
1.759165768
3.030300325
4.267179089
5.470389072
6.640499188
7.778064229
8.883624312
9.95770378
11.00081547
12.01345695
12.9961142
13.94926063
14.87335887
15.76885933
16.6362012
17.47581532
18.28811996
19.07352537
19.83243256
20.56523341
21.27231016
21.95403853
22.61078551
23.2429094
23.85076266
24.43469044
24.99502896
25.53211113
26.04626033
26.53779583
27.00702963
27.45426858
27.87981434
28.28396213
28.66700227
29.02922015
29.37089755
29.69230853
29.9937255
30.2754148
30.5376388
30.7806565
31.00472108
31.21008377
31.3969905
31.56568486
31.71640554
31.84938858
31.96486686
32.06306854
32.14422032
32.20854543
32.25626291
32.28759049
32.30274151
32.3019281
32.28535851
32.253239
32.20577341
32.14316237
32.06560415
31.9732959
31.86643135
31.74520166
31.6097972
31.46040496
31.29721079
31.12039766
30.93014695
30.72663871
30.51005005
30.28055704
30.03833285
29.78355118
29.51638177
29.23699342
28.94555425
28.64222913
28.32718238
28.00057698
27.66257397
27.31333318
26.9530123
26.58176943
26.19975942
25.80713647
25.40405386
24.99066352
24.56711607
24.13355968
23.6901439
23.23701513
22.77431908
22.30220071
21.82080387
21.33027116
20.83074374
20.32236258
19.80526672
19.27959602
18.7454869
18.20307666
17.6525017
17.0938959
16.52739402
15.95312938
15.37123447
14.78184032
14.18507832
13.58107826
12.96996957
12.35188073
11.72693949
11.09527319
10.4570078
9.812269403
9.161182775
8.503872497
7.840461909
7.171074749
6.495832798
5.814858807
5.128273398
4.436197362
3.738750811
3.036053777
2.328224307
1.615382331
0.8976445378
0.175128945
-0.5520472032
-1.283768062
-2.019917394
-2.760379465
-3.505039276
-4.253782645
-5.006494966
-5.763062717
-6.523372792
-7.28731206
-8.054768591
-8.82562923
-9.599783562
-10.37712
-11.15752745
-11.94089548
-12.7271143
-13.51607398
-14.3076656
-15.10177956
-15.89830741
-16.69714112
-17.49817324
-18.30129416
-19.10639913
-19.91337946
-20.72212954
-21.53254271
-22.34451302
-23.1579347
-23.97270297
-24.78871221
-25.60585826
-26.42403625
-27.24314264
-28.06307344
-28.88372484
-29.70499417
-30.52677858
-31.34897531
-32.17148216
-32.99419781
-33.81701921
-34.63984678
-35.46257851
-36.28511372
-37.10749305
-37.92933196
-38.75067457
-39.5714212
-40.39150194
-41.21075921
-42.0291254
-42.84649965
-43.66278589
-44.4778865
-45.29170434
-46.10414208
-46.91510422
-47.72449409
-48.53221642
-49.33817558
-50.14227672
-50.9444248
-51.74452625
-52.54248691
-53.33821388
-54.13161332
-54.9225931
-55.71106108
-56.49692569
-57.28009521
-58.06047919
-58.83798678
-59.61252884
-60.38401531
-61.15235722
-61.91746639
-62.67925491
-63.43763501
-64.19252033
-64.94382398
-65.69146086
-66.43534481
-67.17539219
-67.91151807
-68.64363977
-69.37167391
-70.09553839
-70.81515202
-71.53043357
-72.24130262
-72.94768059
-73.64948747
-74.34664592
-75.03907831
-75.72670809
-76.40945953
-77.08725746
-77.76002749
-78.42769637
-79.09019157
-79.7474409
-80.39937414
-81.04592011
-81.68701068
-82.3225778
-82.952554
-83.57687228
-84.19546806
-84.80827684
-85.41523547
-86.01628126
-86.61135368
-87.20039187
-87.78333671
-88.36013142
-88.93071755
-89.49504076
-90.05304567
-90.60467985
-91.14989071
-91.68862695
-92.22083968
-92.74648069
-93.26550221
-93.77785891
-94.28350663
-94.78240234
-95.27450387
-95.75977149
-96.23816624
-96.70965054
-97.17418874
-97.63174651
-98.08229027
-98.52578933
-98.96221348
-99.39153434
-99.81372554
-100.2287611
-100.6366186
-101.0372754
-101.4307114
-101.8169085
-102.1958492
-102.5675191
-102.931904
-103.2889931
-103.6387756
-103.981244
-104.3163921
-104.6442153
-104.9647105
-105.2778773
-105.583717
-105.8822317
-106.1734271
-106.4573099
-106.7338881
-107.003172
-107.2651754
-107.5199116
-107.7673975
-108.0076508
-108.2406932
-108.4665453
-108.6852322
-108.8967806
-109.1012179
-109.2985752
-109.4888834
-109.6721785
-109.8484953
-110.0178725
-110.1803505
-110.3359714
-110.4847793
-110.6268202
-110.7621424
-110.8907963
-111.0128333
-111.1283079
-111.2372754
-111.339794
-111.4359232
-111.5257245
-111.6092613
-111.6865986
-111.7578038
-111.8229446
-111.882093
-111.9353198
-111.9827001
-112.0243077
-112.0602213
-112.0905187
-112.1152801
-112.1345876
-112.1485243
-112.1571741
-112.1606241
-112.1589607
-112.1522738
-112.1406523
-112.1241891
-112.1029758
-112.0771078
-112.0465423
-112.0116493
-111.9723911
-111.928867
-111.8811752
-111.8294153
-111.7736549
-111.7140447
-111.650643
-111.5835287
-111.5127627
-111.4383875
-111.360411
-111.2787953
-111.1934602
-111.1042094
-111.0108321
-110.9127972
-110.8099781
-110.7003346
-110.5878462
-110.4566441
-110.3386979
-110.1836735
-110.025392
-109.8761165
-109.7210905
-109.3743668
-103.6582604
-83.91847652
-66.16202614
-49.42904792
-33.79532704
-19.33268989
-6.084616017
5.913720598
16.63836826
26.07769015
34.23142899
41.1104822
46.73631532
51.14031387
54.36305208
56.45350061
57.46818489
57.47030869
56.52885557
54.7176784
52.11458811
48.8004479
44.85828456
40.37242119
35.42763758
30.10836734
24.49793034
18.67781274
12.72698739
6.721291378
0.7328467623
-5.170456727
-10.92543056
-16.4739939
-21.76352671
-26.74716048
-31.3840123
-35.63935488
-39.48472631
-42.89797671
-45.86325043
-48.37090359
-50.4173562
-52.0048791
-53.1413161
-53.83974287
-54.11806557
-53.99856244
-53.50737416
-52.67394939
-51.53045388
-50.1111527
-48.4517758
-46.58888016
-44.55921904
-42.39913241
-40.14397082
-37.82756338
-35.48174258
-33.13593314
-30.81681312
-28.54805287
-26.35013356
-24.24024606
-22.23226846
-20.33681803
-18.56137054
-16.91044048
-15.38581125
-13.98680723
-12.71059589
-11.55250982
-10.5063785
-9.564860237
-8.719765496
-7.962364084
-7.283669946
-6.674698143
-6.12669062
-5.631308189
-5.180787149
-4.768060508
-4.386844693
-4.03169289
-3.69801779
-3.382085975
-3.080987882
-2.792586374
-2.515447948
-2.248760483
-1.992241307
-1.746039414
-1.510635494
-1.286743006
-1.075213355
-0.8769479363
-0.6928191269
-0.5236019776
-0.3699180022
-0.2321916137
-0.1106197369
-0.005154236015
0.08450336338
0.1588958455
0.2187942945
0.2651735662
0.299181062
0.3221004779
0.3353125576
0.3402544134
0.338379306
0.3311182375
0.3198448142
0.3058443528
0.2902880473
0.2742128488
0.2585071749
0.243902583
0.2309711719
0.2201282846
0.2116399246
0.2056341599
0.2021158133
0.2009834519
0.2020478981
0.2050514219
0.2096868305
0.2156158425
0.2224859734
0.2299457107
0.2376575019
0.2453083308
0.2526178801
0.2593442013
0.2652871212
0.270289478
0.2742364925
0.2770536104
0.2787030985
0.2791797377
0.2785059122
0.2767265131
0.2739037108
0.2701120089
0.2654337172
0.2599548332
0.2537616797
0.2469380346
0.239563076
0.2317098141
0.223444227
0.2148248136
0.2059026625
0.1967218501
0.1873201007
0.1777296604
0.1679783215
0.1580904688
0.1480881429
0.1379920997
0.1278227561
0.1176010451
0.1073491792
0.09709120607
0.08685348696
0.07666497249
0.06655730555
0.05656481755
0.04672431643
0.03707475742
0.02765675328
0.01851201149
0.009682611507
0.001210260837
-0.006864545642
-0.01450334746
-0.02167056805
-0.02833432207
-0.03446716671
-0.04004674793
-0.04505639999
-0.04948557021
-0.05333015684
-0.05659270435
-0.05928247686
-0.06141539678
-0.06301388581
-0.06410659221
-0.06472803888
-0.06491817668
-0.06472192222
-0.06418860543
-0.06337137589
-0.0623266385
-0.06111338
-0.05979253308
-0.0584262806
-0.0570773566
-0.05580829141
-0.05468064888
-0.05375424119
-0.0530862751
-0.05273051576
-0.0527364319
-0.05314832143
-0.05400447873
-0.05533637007
-0.05716789358
-0.05951470024
-0.06238362491
-0.06577224857
-0.06966858078
-0.07405094877
-0.07888800803
-0.08413898636
-0.08975408361
-0.09567506037
-0.1018360091
-0.1081642799
-0.1145815549
-0.1210050287
-0.1273487042
-0.133524734
-0.1394448006
-0.1450215098
-0.1501697321
-0.1548079126
-0.1588592727
-0.1622528922
-0.1649246775
-0.1668181463
-0.167885062
-0.1680858804
-0.1673900508
-0.1657761307
-0.163231776
-0.1597536179
-0.1553470079
-0.1500256936
-0.1438113593
-0.1367330233
-0.1288262256
-0.1201319453
-0.1106951542
-0.1005629021
-0.0897815336
-0.07839231217
-0.06641878011
-0.05385084278
-0.04056288964
)
;

boundaryField
{
    inlet
    {
        type            calculated;
        value           uniform 0;
    }
    outlet
    {
        type            calculated;
        value           uniform -0.03234038101;
    }
    wall
    {
        type            empty;
    }
}


// ************************************************************************* //
