/*--------------------------------*- C++ -*----------------------------------*\
  =========                 |
  \\      /  F ield         | OpenFOAM: The Open Source CFD Toolbox
   \\    /   O peration     | Website:  https://openfoam.org
    \\  /    A nd           | Version:  7
     \\/     M anipulation  |
\*---------------------------------------------------------------------------*/
FoamFile
{
    version     2.0;
    format      ascii;
    class       volScalarField;
    location    "0.000558243009";
    object      ddt0(rho,C7H15O2);
}
// * * * * * * * * * * * * * * * * * * * * * * * * * * * * * * * * * * * * * //

dimensions      [1 -3 -1 0 0 0 0];

internalField   nonuniform List<scalar> 
1500
(
-5.392218711e-13
-1.613309485e-12
-2.409821736e-12
-2.412098342e-12
-1.81570179e-12
-1.088233911e-12
-5.298063805e-13
-2.013087095e-13
-4.2387985e-14
2.269622708e-14
4.512548255e-14
5.09200963e-14
5.112011352e-14
4.977200536e-14
4.822396801e-14
4.688820411e-14
4.588704938e-14
4.525606029e-14
4.500192065e-14
4.51189034e-14
4.559347392e-14
4.640593479e-14
4.75313831e-14
4.894048221e-14
5.060016605e-14
5.247428812e-14
5.452420573e-14
5.670928972e-14
5.898736207e-14
6.131507966e-14
6.364829793e-14
6.594245969e-14
6.815305686e-14
7.023620768e-14
7.214937367e-14
7.385222218e-14
7.530761851e-14
7.648269248e-14
7.734992622e-14
7.788817962e-14
7.80835717e-14
7.793014022e-14
7.743021753e-14
7.65944807e-14
7.544166194e-14
7.39979319e-14
7.229599351e-14
7.037394571e-14
6.827398939e-14
6.604105349e-14
6.372141814e-14
6.136140245e-14
5.900616988e-14
5.669868956e-14
5.447887346e-14
5.238289333e-14
5.044267087e-14
4.868552449e-14
4.713395339e-14
4.580553882e-14
4.471294668e-14
4.386401958e-14
4.326195117e-14
4.290554157e-14
4.278953189e-14
4.290501881e-14
4.323994412e-14
4.377965043e-14
4.450748738e-14
4.540544515e-14
4.645478706e-14
4.763664952e-14
4.893257631e-14
5.032495827e-14
5.179735358e-14
5.333467574e-14
5.492324332e-14
5.655069961e-14
5.820581945e-14
5.987822884e-14
6.155806975e-14
6.323564484e-14
6.490107605e-14
6.654400925e-14
6.815338904e-14
6.971732286e-14
7.12230441e-14
7.265697685e-14
7.400489744e-14
7.525218132e-14
7.638411987e-14
7.738628764e-14
7.8244939e-14
7.894741244e-14
7.948252169e-14
7.984091267e-14
8.001537037e-14
8.000105959e-14
7.979569022e-14
7.939959969e-14
7.881575108e-14
7.804965055e-14
7.710919108e-14
7.600443491e-14
7.47473496e-14
7.335151492e-14
7.183181832e-14
7.020415584e-14
6.84851521e-14
6.669191064e-14
6.484180042e-14
6.295227905e-14
6.10407505e-14
5.912444868e-14
5.722033856e-14
5.534502272e-14
5.351464437e-14
5.174477759e-14
5.005030031e-14
4.8445249e-14
4.694265784e-14
4.555438958e-14
4.429096658e-14
4.316141364e-14
4.21731238e-14
4.133175649e-14
4.064117525e-14
4.010342946e-14
3.971877905e-14
3.948575945e-14
3.940127929e-14
3.94607418e-14
3.965817957e-14
3.998639295e-14
4.043708348e-14
4.100097676e-14
4.166793257e-14
4.242704321e-14
4.326672595e-14
4.417481657e-14
4.513867503e-14
4.614531332e-14
4.718155541e-14
4.823423791e-14
4.929045365e-14
5.033783886e-14
5.136489678e-14
5.236134621e-14
5.331847717e-14
5.422949274e-14
5.508981277e-14
5.589731388e-14
5.665248097e-14
5.735845114e-14
5.802093222e-14
5.864799021e-14
5.924970312e-14
5.983769396e-14
6.042455862e-14
6.102321903e-14
6.1646234e-14
6.230510964e-14
6.300965027e-14
6.376739291e-14
6.458316233e-14
6.545878068e-14
6.639295118e-14
6.738132839e-14
6.841677161e-14
6.948976505e-14
7.058897571e-14
7.170190811e-14
7.281560546e-14
7.391734519e-14
7.499527329e-14
7.6038927e-14
7.703960733e-14
7.799057249e-14
7.888704202e-14
7.972601788e-14
8.050594724e-14
8.122626617e-14
8.188687438e-14
8.248759904e-14
8.302770439e-14
8.350549847e-14
8.391807907e-14
8.426124151e-14
8.452955937e-14
8.471662711e-14
8.481544168e-14
8.481888672e-14
8.472027735e-14
8.451392118e-14
8.419565557e-14
8.376332384e-14
8.321716369e-14
8.256008651e-14
8.179783206e-14
8.093898249e-14
7.999482708e-14
7.897905973e-14
7.790729824e-14
7.679641805e-14
7.566369944e-14
7.452581489e-14
7.33976995e-14
7.229139114e-14
7.121495375e-14
7.01716323e-14
6.915940638e-14
6.81711066e-14
6.719522887e-14
6.621752683e-14
6.52233666e-14
6.420071167e-14
6.314347683e-14
6.205485582e-14
6.095011395e-14
5.985827657e-14
5.882213747e-14
5.789609575e-14
5.714149963e-14
5.661944246e-14
5.63812948e-14
5.645764393e-14
5.684670887e-14
5.750365205e-14
5.83324605e-14
5.918217036e-14
5.984910588e-14
6.008647393e-14
5.962207254e-14
5.818408429e-14
5.553394297e-14
5.150419543e-14
4.603821644e-14
3.922769049e-14
3.134309293e-14
2.285209017e-14
1.442096048e-14
6.894807839e-15
1.253620959e-15
-1.45772521e-15
-2.256194019e-16
5.804122472e-15
1.716556439e-14
3.38428455e-14
5.514167614e-14
7.99872347e-14
9.541409348e-14
9.727848475e-14
9.905792479e-14
1.008197054e-13
1.025772496e-13
1.043311844e-13
1.060784256e-13
1.078174904e-13
1.09547051e-13
1.112660958e-13
1.129735328e-13
1.146680311e-13
1.163482519e-13
1.180126231e-13
1.196595767e-13
1.212875753e-13
1.228949381e-13
1.244799736e-13
1.260409351e-13
1.275760726e-13
1.290835433e-13
1.30561367e-13
1.320076288e-13
1.33420268e-13
1.347972782e-13
1.361363321e-13
1.374352851e-13
1.386917543e-13
1.399034363e-13
1.410677287e-13
1.42182157e-13
1.432439919e-13
1.442505112e-13
1.451988898e-13
1.460860808e-13
1.469090785e-13
1.476647186e-13
1.483496391e-13
1.489604515e-13
1.494936202e-13
1.499454282e-13
1.503120307e-13
1.50589412e-13
1.507734816e-13
1.508598632e-13
1.508440362e-13
1.507213693e-13
1.504869395e-13
1.501356032e-13
1.496620956e-13
1.490608035e-13
1.483259435e-13
1.474513764e-13
1.464307977e-13
1.452575254e-13
1.439245677e-13
1.42424581e-13
1.407498689e-13
1.388923815e-13
1.368436474e-13
1.345946753e-13
1.321361355e-13
1.294580632e-13
1.265500729e-13
1.23401096e-13
1.199995809e-13
1.163331817e-13
1.123888886e-13
1.081529927e-13
1.036108359e-13
9.874700087e-14
9.354506948e-14
8.798766461e-14
8.20561691e-14
7.573098483e-14
6.899103104e-14
6.181405831e-14
5.417620296e-14
4.605209392e-14
3.741456918e-14
2.823467247e-14
1.848144698e-14
8.121696896e-15
-2.879876807e-15
-1.456136078e-14
-2.696329702e-14
-4.012932403e-14
-5.410610664e-14
-6.894365889e-14
-8.469575137e-14
-1.014200142e-13
-1.191782804e-13
-1.380369829e-13
-1.580673921e-13
-1.793460454e-13
-2.019551753e-13
-2.259829654e-13
-2.515242016e-13
-2.786805912e-13
-3.075613399e-13
-3.382836602e-13
-3.709732409e-13
-4.057650846e-13
-4.428037564e-13
-4.822444328e-13
-5.242533385e-13
-5.690084361e-13
-6.167004136e-13
-6.675332993e-13
-7.217252935e-13
-7.795096921e-13
-8.411357435e-13
-9.068695004e-13
-9.769949381e-13
-1.051814764e-12
-1.131651569e-12
-1.21684868e-12
-1.30777157e-12
-1.404808448e-12
-1.508371781e-12
-1.618899176e-12
-1.736854614e-12
-1.862729514e-12
-1.99704386e-12
-2.140347439e-12
-2.293220678e-12
-2.456276136e-12
-2.630159172e-12
-2.815549328e-12
-3.01316105e-12
-3.223744796e-12
-3.448087928e-12
-3.687015461e-12
-3.94139097e-12
-4.212117017e-12
-4.500135864e-12
-4.806430089e-12
-5.132022633e-12
-5.477977237e-12
-5.845398564e-12
-6.235431848e-12
-6.649262996e-12
-7.088117989e-12
-7.553262503e-12
-8.046000827e-12
-8.567675262e-12
-9.119664553e-12
-9.703382843e-12
-1.032027787e-11
-1.097182902e-11
-1.165954538e-11
-1.23849632e-11
-1.314964355e-11
-1.39551691e-11
-1.480314129e-11
-1.569517674e-11
-1.663290369e-11
-1.761795819e-11
-1.865197968e-11
-1.973660688e-11
-2.0873473e-11
-2.206420083e-11
-2.33103979e-11
-2.461365073e-11
-2.597551985e-11
-2.739753398e-11
-2.888118391e-11
-3.042791707e-11
-3.203913107e-11
-3.37161678e-11
-3.546030721e-11
-3.727276078e-11
-3.915466578e-11
-4.110707868e-11
-4.313096901e-11
-4.522721343e-11
-4.739658984e-11
-4.963977122e-11
-5.195732034e-11
-5.434968448e-11
-5.681718974e-11
-5.936003676e-11
-6.197829601e-11
-6.467190352e-11
-6.744065704e-11
-7.028421316e-11
-7.320208365e-11
-7.619363377e-11
-7.92580797e-11
-8.239448756e-11
-8.560177247e-11
-8.887869794e-11
-9.22238766e-11
-9.563577061e-11
-9.911269364e-11
-1.026528127e-10
-1.062541507e-10
-1.099145901e-10
-1.136318768e-10
-1.174036246e-10
-1.212273204e-10
-1.251003303e-10
-1.290199051e-10
-1.329831891e-10
-1.369872251e-10
-1.410289642e-10
-1.451052744e-10
-1.492129482e-10
-1.533487136e-10
-1.575092434e-10
-1.61691165e-10
-1.658910726e-10
-1.701055359e-10
-1.743311142e-10
-1.785643654e-10
-1.828018594e-10
-1.870401906e-10
-1.912759887e-10
-1.955059319e-10
-1.997267594e-10
-2.039352846e-10
-2.081284077e-10
-2.123031277e-10
-2.164565569e-10
-2.205859331e-10
-2.246886329e-10
-2.28762185e-10
-2.328042839e-10
-2.368128033e-10
-2.407858082e-10
-2.447215713e-10
-2.486185857e-10
-2.524755778e-10
-2.562915241e-10
-2.600656633e-10
-2.63797514e-10
-2.674868883e-10
-2.711339085e-10
-2.747390243e-10
-2.783030287e-10
-2.818270761e-10
-2.853127021e-10
-2.887618423e-10
-2.921768523e-10
-2.955605296e-10
-2.98916138e-10
-3.022474283e-10
-3.055586647e-10
-3.088546552e-10
-3.121407725e-10
-3.154229901e-10
-3.187079123e-10
-3.220028046e-10
-3.25315631e-10
-3.286550915e-10
-3.320306605e-10
-3.354526246e-10
-3.38932132e-10
-3.424812312e-10
-3.461129156e-10
-3.498411699e-10
-3.536809312e-10
-3.576489171e-10
-3.617168795e-10
-3.659535721e-10
-3.704128829e-10
-3.751740662e-10
-3.801372245e-10
-3.853256356e-10
-3.907649362e-10
-3.964822517e-10
-4.025065151e-10
-4.088684822e-10
-4.156008037e-10
-4.227381322e-10
-4.303171934e-10
-4.383766804e-10
-4.469708094e-10
-4.563288335e-10
-4.663233206e-10
-4.770010862e-10
-4.884131243e-10
-5.005664405e-10
-5.135254067e-10
-5.273793238e-10
-5.421880686e-10
-5.58014275e-10
-5.749235232e-10
-5.929842601e-10
-6.122678297e-10
-6.328485378e-10
-6.548036998e-10
-6.782136862e-10
-7.031619856e-10
-7.297352284e-10
-7.580232419e-10
-7.881190919e-10
-8.201191138e-10
-8.541229601e-10
-8.902336464e-10
-9.285575868e-10
-9.692046546e-10
-1.012288222e-09
-1.057925237e-09
-1.106236275e-09
-1.157345631e-09
-1.2113814e-09
-1.268475586e-09
-1.328764226e-09
-1.392387523e-09
-1.459490017e-09
-1.530220765e-09
-1.604733563e-09
-1.683187182e-09
-1.765745665e-09
-1.85257863e-09
-1.943861644e-09
-2.039776623e-09
-2.140512285e-09
-2.246264678e-09
-2.357237718e-09
-2.473643843e-09
-2.595704694e-09
-2.723651892e-09
-2.857727843e-09
-2.998186697e-09
-3.145295306e-09
-3.299334324e-09
-3.46059936e-09
-3.629402251e-09
-3.806072415e-09
-3.990958308e-09
-4.184428984e-09
-4.386875769e-09
-4.598714062e-09
-4.820385242e-09
-5.052358741e-09
-5.295134274e-09
-5.549244223e-09
-5.815256333e-09
-6.093776548e-09
-6.385452364e-09
-6.690976531e-09
-7.011091441e-09
-7.346594373e-09
-7.698343891e-09
-8.067267913e-09
-8.454374064e-09
-8.86076326e-09
-9.287647847e-09
-9.736376134e-09
-1.020846602e-08
-1.070565143e-08
-1.122994683e-08
-1.178373742e-08
-1.236990558e-08
-1.299200849e-08
-1.365452837e-08
-1.436322516e-08
-1.512563423e-08
-1.59517688e-08
-1.685511246e-08
-1.785402071e-08
-1.897370143e-08
-2.024901273e-08
-2.172841622e-08
-2.347956171e-08
-2.559717667e-08
-2.821421027e-08
-3.151757193e-08
-3.577035626e-08
-4.134322197e-08
-4.87586869e-08
-5.875364413e-08
-7.236757433e-08
-9.106698938e-08
-1.169209417e-07
-1.528484897e-07
-2.029675142e-07
-2.730862394e-07
-3.713955975e-07
-5.094441339e-07
-7.035101885e-07
-9.765323666e-07
-1.360824103e-06
-1.901888737e-06
-2.663778049e-06
-3.73661378e-06
-5.247137656e-06
-7.373497501e-06
-1.036595225e-05
-1.457583691e-05
-2.049603928e-05
-2.881749598e-05
-4.050794321e-05
-5.692152723e-05
-7.995111766e-05
-0.0001122395726
-0.0001574721778
-0.0002207805272
-0.0003092989001
-0.0004329285354
-0.000605384156
-0.0008456218766
-0.001179779715
-0.001643802895
-0.002286977718
-0.003176662038
-0.004404573246
-0.006095095791
-0.008416153425
-0.01159331526
-0.01592789836
-0.02181991081
-0.02979674151
-0.04054838403
-0.05496991038
-0.07421142533
-0.09973513064
-0.1333780836
-0.1774177646
-0.2346355777
-0.3083708783
-0.4025550969
-0.5217121236
-0.6709076127
-0.8556266246
-1.081556379
-1.354249887
-1.6786463
-2.058426746
-2.495188958
-2.987429767
-3.529332554
-4.109352221
-4.70859249
-5.29893777
-5.840831682
-6.280626154
-6.547068352
-6.54686905
-6.158699566
-5.225294861
-3.542776439
-0.8478745687
3.182986542
8.856413961
16.98377138
27.29622384
44.63051567
66.17660155
93.31472654
112.9644134
153.2886597
188.1497972
212.7306582
216.1988368
173.2594721
36.02579071
-183.4101754
-346.9317719
-362.2458661
-285.397588
-201.6254358
-122.3401892
-76.38195262
-46.62495908
-28.27134971
-16.33503252
-9.76216163
-5.868704837
-3.570396041
-2.10170874
-1.282427764
-0.785551734
-0.4827525412
-0.2974494362
-0.1834198512
-0.1133742825
-0.06903370185
-0.04259677463
-0.02607830765
-0.01607468318
-0.009917184252
-0.006125200077
-0.003790046483
-0.002354628525
-0.001457669118
-0.0008864004666
-0.0005378380614
-0.0003254594208
-0.0001959829121
-0.0001176178687
-7.075187507e-05
-4.277804207e-05
-2.602251262e-05
-1.591516862e-05
-9.484909155e-06
-5.598734822e-06
-3.337425176e-06
-1.966267747e-06
-1.143230846e-06
-6.547909256e-07
-3.684335727e-07
-2.027763737e-07
-1.081875673e-07
-5.538456437e-08
-2.652774601e-08
-1.12556646e-08
-3.544182765e-09
6.387835843e-11
1.521392551e-09
1.909441444e-09
1.810539209e-09
1.526753733e-09
1.205748241e-09
9.126451212e-10
6.702448993e-10
4.810590354e-10
3.389904029e-10
2.352430812e-10
1.610934758e-10
1.090122857e-10
7.296389809e-11
4.832984716e-11
3.168872007e-11
2.056657515e-11
1.320845658e-11
8.388919015e-12
5.263730595e-12
3.258180968e-12
1.985264352e-12
1.187012816e-12
6.931471569e-13
3.923509326e-13
2.125622991e-13
1.07603306e-13
4.820174971e-14
1.602096001e-14
-2.729190418e-16
-7.577311718e-15
-1.001203328e-14
-9.980854932e-15
-8.843638512e-15
-7.153769243e-15
-5.460604568e-15
-4.138341182e-15
-3.112057204e-15
-2.321955653e-15
-1.719115437e-15
-1.263338001e-15
-9.21815268e-16
-6.680881365e-16
-4.708755814e-16
-3.281192181e-16
-2.270941965e-16
-1.561820507e-16
-1.06773623e-16
-7.258133934e-17
-4.906858679e-17
-3.299606741e-17
-2.207185372e-17
-1.468747123e-17
-9.722350029e-18
-6.400980935e-18
-4.18975673e-18
-2.725476393e-18
-1.760702454e-18
-1.129334678e-18
-7.193130041e-19
-4.549401161e-19
-2.856494411e-19
-1.779819546e-19
-1.09983158e-19
-6.735741448e-20
-4.086513643e-20
-2.458242653e-20
-1.458137258e-20
-8.522809671e-21
-4.963309697e-21
-2.87257338e-21
-1.642335235e-21
-9.229176423e-22
-5.059126106e-22
-2.671797494e-22
-1.328885724e-22
-5.924173779e-23
-2.036921295e-23
-1.0808579e-24
7.462364215e-24
1.033721644e-23
1.040593094e-23
9.239534071e-24
7.6663106e-24
6.095383222e-24
4.705729493e-24
3.555060819e-24
2.641321092e-24
1.936460906e-24
1.404219821e-24
1.008864072e-24
7.189591813e-25
5.085166506e-25
3.472093789e-25
2.164939918e-25
1.348005263e-25
8.374304678e-26
5.185878839e-26
3.19809741e-26
1.961980193e-26
1.195924788e-26
7.232576227e-27
4.33198058e-27
2.563790974e-27
1.494613806e-27
8.544925048e-28
4.759252135e-28
2.739052449e-28
1.965848669e-28
1.39623625e-28
9.821140936e-29
6.843254919e-29
4.731495149e-29
2.952093637e-29
1.336152328e-29
4.55310176e-30
6.275499048e-32
-1.97261284e-30
-2.668868562e-30
-2.687394081e-30
-2.400088912e-30
-2.008177323e-30
-1.613273783e-30
-1.258769304e-30
-9.610252089e-31
-7.228188922e-31
-5.373947428e-31
-3.945270064e-31
-2.874060487e-31
-2.082462015e-31
-1.498385928e-31
-1.049112387e-31
-7.103495169e-32
-4.787467888e-32
-3.199404507e-32
-2.161385796e-32
-1.44650573e-32
-9.635770871e-33
-6.382909789e-33
-4.187996481e-33
-2.874527825e-33
-1.923136579e-33
-1.304215781e-33
-8.962564466e-34
-6.240033705e-34
-4.187902633e-34
-3.083937033e-34
-2.113090408e-34
-1.50928062e-34
-9.965754361e-35
-6.685138257e-35
-3.021242708e-35
-3.358086569e-35
-1.700769943e-35
-3.295276735e-36
1.213121017e-35
1.161907188e-35
4.414845211e-36
-2.328636992e-36
-3.141643956e-36
-2.528448698e-36
-3.751677523e-36
-2.045223236e-36
-1.185982963e-36
-1.176522427e-36
-6.054494258e-37
1.921263686e-37
-2.744778983e-38
8.307658965e-37
9.371903502e-37
1.06563167e-36
1.77788526e-36
2.061727461e-36
2.071534863e-36
1.683491006e-36
1.461721351e-36
1.446426148e-36
9.129035239e-37
6.169293557e-37
2.242621811e-37
2.236619505e-37
2.909547649e-37
1.712395194e-37
1.010313136e-37
3.923517184e-38
1.782516025e-38
9.158152818e-39
3.07983337e-39
1.405543875e-38
2.749364826e-38
5.3241785e-38
3.711587122e-38
2.912226955e-38
2.847589445e-38
3.054766296e-38
3.349869746e-38
5.219571561e-38
6.31529943e-38
5.954934462e-38
4.16247768e-38
2.34144746e-38
1.260601037e-38
8.871690762e-39
3.884722672e-39
8.459446991e-40
-2.54595763e-39
-2.565107464e-39
1.121318071e-39
7.184030032e-40
9.017420221e-40
1.178029839e-39
3.93093335e-40
-2.110076206e-41
-2.498752829e-40
-2.989410063e-40
-4.596253049e-40
-4.158633681e-40
-2.956329863e-40
-1.857681631e-40
7.179483242e-41
7.637268076e-41
1.602101902e-40
8.03513693e-41
-1.96802905e-41
-9.515300477e-41
-7.96552908e-41
1.011561507e-40
9.609823103e-41
-7.866677832e-42
-1.09701646e-40
-1.750971994e-41
-5.362824507e-42
1.926315814e-41
5.991689652e-41
2.812863549e-41
2.311248788e-41
2.061347065e-41
6.715403242e-42
6.209749752e-43
-1.94130185e-42
-1.794619548e-42
-2.631885965e-42
-1.127728699e-42
2.860977869e-42
7.92030069e-43
1.988610992e-42
5.035906955e-42
3.790102857e-42
3.581220739e-44
2.543802299e-42
9.780232861e-43
5.165066303e-43
1.419438603e-42
4.339750135e-42
2.588134875e-42
1.797979086e-42
6.602891895e-43
9.997029774e-43
8.319621465e-43
4.886254015e-44
-6.035314457e-43
-1.718665416e-43
-5.306773348e-43
-7.291927589e-43
-6.993734524e-43
-5.379919177e-43
-6.551084657e-43
-6.693894327e-43
-8.94398732e-43
-1.093647331e-42
-1.044179934e-42
-9.44617625e-43
-7.528705858e-43
-5.414268099e-43
-1.881397382e-43
-9.102821133e-44
-2.853748799e-44
1.828484299e-44
6.3724118e-44
5.49318636e-44
5.027510008e-44
6.190664403e-44
5.409845697e-44
6.476413511e-44
5.788107847e-44
3.608571424e-44
2.255942578e-44
1.002836908e-44
-8.573796537e-46
-1.276864214e-44
-2.799672121e-45
5.049945811e-45
1.535908586e-44
2.332479642e-45
-8.222615845e-45
-1.69273018e-44
-3.639629018e-45
1.554912727e-45
2.827381009e-45
4.793125018e-45
2.834914521e-45
1.548242543e-45
6.596999713e-46
-7.84397648e-46
-1.998539049e-45
-8.80401924e-46
-2.877342118e-48
-2.457988473e-46
-7.930595208e-46
-1.672673221e-45
-1.575661701e-45
-9.879326311e-46
-5.296754746e-46
-2.095163613e-47
4.940841406e-46
7.461628898e-46
5.094846085e-46
3.132079297e-46
1.913717629e-46
1.323291848e-46
2.425223192e-47
6.025232828e-47
1.122259414e-46
1.879962699e-46
1.222319149e-46
9.480819554e-47
8.564800969e-47
9.957759734e-47
1.447065716e-46
8.287045518e-47
4.325014863e-47
4.58421729e-47
1.688595826e-47
-3.464993275e-48
-1.979216812e-47
-3.771222181e-47
-2.846505825e-47
-2.226620256e-47
-1.296057671e-47
3.678982921e-48
-5.085986458e-48
-1.904567011e-48
-6.956145979e-48
9.282508841e-50
6.180324489e-50
-2.651302111e-48
2.582798573e-49
2.505742391e-48
5.988710028e-48
5.519011022e-48
5.146983348e-50
-1.677686484e-48
-3.949316365e-48
-2.290891447e-48
-1.374324741e-48
-8.522142001e-49
-9.814233464e-49
-1.243026424e-48
-9.831786121e-49
-7.865896129e-49
-6.119657429e-49
-5.867730874e-49
-6.239453162e-49
-7.141278886e-49
-6.369628525e-49
-2.901846661e-49
8.228422268e-51
2.923780609e-49
2.478782941e-49
2.270348521e-49
1.200149179e-49
3.777363262e-50
1.50339627e-49
3.321480644e-49
2.246133634e-49
2.49482081e-49
2.64375586e-49
1.536806606e-49
6.534241315e-50
3.515896763e-50
6.43326249e-50
5.188605479e-50
2.240707757e-50
4.031953235e-50
4.718395033e-50
4.713833286e-50
3.305635833e-50
2.764210009e-50
2.783097378e-50
3.430135514e-50
2.948393201e-50
2.222668876e-50
1.958433036e-50
9.936665286e-51
3.142924031e-51
-9.928871363e-52
1.493144332e-51
4.516476862e-51
5.812908656e-51
6.209683235e-51
3.872901536e-51
1.784005375e-51
8.403800435e-52
6.04151432e-52
-3.728509346e-52
-9.15043648e-52
-7.197970155e-52
-9.164561162e-52
-8.949484396e-52
-8.337663357e-52
-4.831931614e-52
1.497587062e-52
1.083817964e-53
5.431483858e-53
5.910876706e-53
2.034793709e-52
2.137340203e-52
1.312614116e-52
-7.409685496e-54
1.601037169e-53
1.5694596e-52
2.47128882e-52
3.47078438e-52
2.336561362e-52
8.581292837e-53
7.277916322e-53
6.575612945e-53
7.373570508e-53
3.318656285e-53
-4.021050997e-53
-4.161299327e-53
-3.24405594e-53
-3.347009503e-53
-3.450569617e-53
-4.275111157e-53
-4.718081915e-53
-5.161361767e-53
-5.413716378e-53
-5.256054076e-53
-4.458060003e-53
-3.271344546e-53
-1.367069534e-53
-4.800940178e-54
-6.428861503e-54
-4.175362638e-54
6.279486021e-54
1.437320059e-53
1.343891904e-53
1.364048882e-53
1.356668959e-53
1.171065484e-53
1.17559135e-53
1.018442005e-53
7.280332501e-54
5.570967937e-54
3.181583521e-54
2.950760884e-54
2.331908805e-54
2.285254779e-54
3.092090031e-54
1.804006606e-54
1.771968752e-54
2.203874447e-54
9.328489365e-55
1.586680238e-55
6.717091518e-55
5.630641749e-55
5.321741133e-55
5.998840213e-55
5.78257313e-55
5.589225329e-55
1.49292075e-54
1.625806689e-54
1.016286323e-54
1.690464964e-54
1.520785746e-54
1.712371024e-54
1.915580683e-54
1.843524642e-54
1.391291483e-54
9.666576901e-55
9.182428357e-55
7.952414975e-55
9.459124962e-55
9.186080333e-55
1.566075208e-54
1.574045694e-54
1.048106603e-54
5.509801427e-55
1.337529215e-55
1.458930827e-55
2.651395951e-55
-7.923024328e-56
9.089642641e-56
-5.077692212e-56
2.108422898e-56
8.402355525e-56
-1.217496458e-56
2.972939361e-56
2.01046186e-56
-8.723748672e-57
5.520171891e-57
4.173392129e-57
9.231141786e-58
3.2059889e-58
-6.523140655e-58
2.66331074e-58
6.231337997e-58
7.611526489e-59
-5.531680809e-59
4.602458725e-59
3.238762809e-60
-2.470607145e-60
-2.403957194e-60
-1.963221903e-60
-3.985307938e-61
-1.761171491e-61
1.280411989e-61
1.680740656e-61
5.294442044e-62
-5.387095364e-62
2.784903871e-62
-2.449687404e-63
-2.763758509e-64
-1.102972206e-63
1.196324868e-62
1.680468808e-62
3.958754958e-64
2.632814342e-64
-1.300136802e-63
2.123058751e-64
5.714509276e-64
-7.614063431e-65
-3.545508038e-63
-5.490358048e-65
7.890891433e-64
2.237980419e-65
-7.749202045e-64
2.9396035e-64
-1.130651547e-64
2.262634613e-64
7.467901426e-65
-7.779883916e-67
-3.436880407e-65
3.045989336e-65
-6.429362842e-66
-5.600141896e-66
-1.039542621e-66
2.659970144e-66
2.315577675e-66
-1.114085688e-66
3.973608732e-67
-5.360072916e-67
-5.000234693e-69
3.859596716e-68
2.462495572e-68
3.424274505e-70
-3.923862277e-69
-1.672797137e-68
-7.552193447e-70
-1.181406025e-68
-7.779605098e-70
-2.128229322e-69
2.909993202e-69
-1.847377539e-69
3.914031304e-71
7.864972187e-70
6.561930569e-70
-1.104319312e-70
-1.690589726e-70
-9.12522926e-71
1.430910415e-70
1.024910456e-70
-4.936897293e-71
-1.916935993e-71
4.145456045e-73
9.737618805e-72
1.38580621e-72
1.99114818e-72
-3.844340082e-73
-4.749914273e-73
-5.57095946e-74
-4.142251463e-74
7.544114798e-75
2.089994375e-74
1.092084225e-75
6.755128178e-75
-1.799607518e-75
-8.11844069e-77
-2.955645514e-76
5.016371049e-78
8.276032218e-76
4.77995563e-76
-3.229677934e-76
-4.703931075e-77
-7.943008639e-79
-1.110129204e-77
-6.993896552e-77
2.288122335e-77
9.214176328e-77
1.251568066e-78
-1.746040783e-77
-7.740327786e-78
6.291913042e-77
-6.344743891e-78
1.397884698e-79
3.439101918e-77
-5.071577045e-78
1.21674881e-77
1.078008238e-77
-5.632769731e-78
2.372954565e-78
3.853283599e-78
2.673993646e-78
-4.422406844e-77
-2.696459495e-77
-6.372672505e-78
1.467301781e-77
2.900345235e-78
-2.640650661e-77
1.517738901e-78
-6.570837445e-77
-6.195029794e-77
-2.728410032e-77
2.131173543e-77
-6.535017827e-77
1.764900776e-78
-7.81420354e-77
-1.4759572e-77
-6.63900515e-77
-3.91944672e-77
-3.008150068e-79
1.460734389e-78
-1.058299182e-76
-6.18445148e-77
-1.279765484e-77
-5.002909993e-77
-6.881036931e-77
1.60836148e-78
-1.441258737e-76
-2.732007244e-77
-4.739114678e-77
-2.724823624e-78
5.443379554e-78
-6.460412822e-77
3.786920178e-77
-1.685723182e-77
1.224424734e-79
1.155100268e-76
-2.873447104e-78
-9.633037568e-78
-1.073356784e-77
7.237714762e-78
1.250010117e-79
1.114375938e-76
1.209996241e-78
1.341302834e-76
1.283410144e-78
-6.273058106e-77
-3.861866763e-77
2.498470827e-77
8.877011849e-77
3.732071478e-78
-3.016439088e-77
-2.218695655e-77
-8.905456464e-78
3.091089626e-77
-1.001000007e-76
1.69417445e-79
-2.031639742e-77
-2.813978236e-79
3.030892234e-80
-9.505876618e-77
-8.459843522e-79
1.821338092e-80
-3.313046185e-77
6.303100607e-80
7.949239954e-77
-8.963758901e-77
-5.977570887e-77
-1.003103762e-77
-1.511668413e-77
-9.721793428e-80
-2.501676783e-80
-5.491238671e-78
1.234302732e-79
1.718284093e-78
1.095843087e-77
6.134160591e-79
2.15780056e-78
1.372897053e-77
-9.305956952e-78
-9.590644192e-77
-2.484957157e-77
-5.840239451e-78
7.847264111e-78
5.922485711e-79
-1.093996695e-77
1.16010384e-77
4.962213925e-78
-5.329347449e-78
-1.002425247e-77
-2.760754575e-77
6.514210092e-80
1.251171755e-79
1.569687221e-81
3.368583925e-78
1.788641305e-80
-1.241792821e-78
-1.025046112e-79
-5.459188244e-79
1.374155507e-78
-2.55209319e-79
-5.226442771e-81
-1.17485601e-78
7.010057935e-79
9.476631554e-79
-3.954813091e-80
-5.499491602e-78
3.677652912e-77
-1.721328781e-77
-2.577964295e-79
2.706538677e-78
-2.275457218e-77
-9.848378139e-78
-4.835844219e-77
1.733886488e-77
1.519080746e-77
1.400531809e-79
-4.719352092e-79
1.939497291e-81
7.742189652e-78
1.120640789e-76
-5.081740668e-77
6.005341496e-77
7.605233185e-78
-5.266978818e-79
6.205483786e-79
-1.512141159e-77
-5.645821929e-80
)
;

boundaryField
{
    inlet
    {
        type            calculated;
        value           uniform 0;
    }
    outlet
    {
        type            calculated;
        value           uniform -5.645821947e-80;
    }
    wall
    {
        type            empty;
    }
}


// ************************************************************************* //
