/*--------------------------------*- C++ -*----------------------------------*\
  =========                 |
  \\      /  F ield         | OpenFOAM: The Open Source CFD Toolbox
   \\    /   O peration     | Website:  https://openfoam.org
    \\  /    A nd           | Version:  7
     \\/     M anipulation  |
\*---------------------------------------------------------------------------*/
FoamFile
{
    version     2.0;
    format      ascii;
    class       volScalarField;
    location    "0.000558243009";
    object      ddt0(rho,C4H6);
}
// * * * * * * * * * * * * * * * * * * * * * * * * * * * * * * * * * * * * * //

dimensions      [1 -3 -1 0 0 0 0];

internalField   nonuniform List<scalar> 
1500
(
-1.366075575e-09
-4.158995761e-09
-6.306797106e-09
-6.436664729e-09
-4.973495648e-09
-3.100567968e-09
-1.622839963e-09
-7.334932301e-10
-2.938875502e-10
-1.09816956e-10
-4.464766396e-11
-2.688789884e-11
-2.545673537e-11
-2.87045701e-11
-3.267769313e-11
-3.615059303e-11
-3.875911471e-11
-4.039883009e-11
-4.104962734e-11
-4.072568528e-11
-3.94618783e-11
-3.730936673e-11
-3.433322336e-11
-3.061047245e-11
-2.622819601e-11
-2.128172129e-11
-1.587296939e-11
-1.010903156e-11
-4.100982138e-12
2.037123091e-12
8.18916763e-12
1.423795126e-11
2.006636556e-11
2.555888997e-11
3.060347331e-11
3.509381462e-11
3.893199258e-11
4.203129472e-11
4.431910005e-11
4.573959542e-11
4.625610586e-11
4.585283774e-11
4.453587093e-11
4.233329244e-11
3.929443566e-11
3.548825734e-11
3.100095261e-11
2.593296247e-11
2.039556367e-11
1.450724596e-11
8.390080632e-12
2.166256072e-12
-4.045076214e-12
-1.013054609e-11
-1.598484496e-11
-2.15125311e-11
-2.662937776e-11
-3.126330679e-11
-3.535495962e-11
-3.885795774e-11
-4.173889613e-11
-4.397709897e-11
-4.556415912e-11
-4.650326329e-11
-4.680830848e-11
-4.650280731e-11
-4.561859583e-11
-4.419436608e-11
-4.227406602e-11
-3.990522709e-11
-3.713729412e-11
-3.402004206e-11
-3.06021651e-11
-2.693011635e-11
-2.3047262e-11
-1.899338575e-11
-1.480455755e-11
-1.051334601e-11
-6.149328752e-12
-1.739833433e-12
2.689177329e-12
7.112166909e-12
1.150312319e-11
1.583477777e-11
2.007801092e-11
2.420149186e-11
2.817158044e-11
3.195249705e-11
3.550674836e-11
3.879577834e-11
4.178080368e-11
4.442378235e-11
4.668846022e-11
4.854143738e-11
4.995320003e-11
5.089906241e-11
5.135997647e-11
5.132316743e-11
5.078257015e-11
4.973904714e-11
4.82003845e-11
4.618107458e-11
4.370190463e-11
4.07893839e-11
3.747504846e-11
3.379468885e-11
2.978754804e-11
2.54955331e-11
2.096247776e-11
1.623348433e-11
1.13543608e-11
6.371154943e-12
1.329778564e-12
-3.724299753e-12
-8.746316589e-12
-1.369246052e-11
-1.852012971e-11
-2.318822223e-11
-2.765747251e-11
-3.189083591e-11
-3.58539139e-11
-3.951540124e-11
-4.284753217e-11
-4.582649527e-11
-4.84327877e-11
-5.065148345e-11
-5.247239701e-11
-5.389013122e-11
-5.490401081e-11
-5.551791059e-11
-5.573999661e-11
-5.558240529e-11
-5.506088723e-11
-5.419444183e-11
-5.300496485e-11
-5.15169247e-11
-4.975707181e-11
-4.775417981e-11
-4.553880209e-11
-4.314302548e-11
-4.060019253e-11
-3.794456428e-11
-3.52108991e-11
-3.243392366e-11
-2.964769037e-11
-2.688481985e-11
-2.41756472e-11
-2.154730188e-11
-1.902276936e-11
-1.66199883e-11
-1.435104918e-11
-1.222156041e-11
-1.023024794e-11
-8.368839053e-12
-6.622276918e-12
-4.969281098e-12
-3.383260748e-12
-1.833546625e-12
-2.86900766e-13
1.29077685e-12
2.932629782e-12
4.669025292e-12
6.525841624e-12
8.52297557e-12
1.067316822e-11
1.298123869e-11
1.544377707e-11
1.804932972e-11
2.077906796e-11
2.360789661e-11
2.650592644e-11
2.944020135e-11
3.237654904e-11
3.528141608e-11
3.812354175e-11
4.087533738e-11
4.351386926e-11
4.602136881e-11
4.838524346e-11
5.059760437e-11
5.265437648e-11
5.455409388e-11
5.629651363e-11
5.788120042e-11
5.930623142e-11
6.05671581e-11
6.165633449e-11
6.256267241e-11
6.327185328e-11
6.376696681e-11
6.402951655e-11
6.40406968e-11
6.378282955e-11
6.324084534e-11
6.240370169e-11
6.126564195e-11
5.982722263e-11
5.809605398e-11
5.608721181e-11
5.382327769e-11
5.133398582e-11
4.865542647e-11
4.582877889e-11
4.289855294e-11
3.991033712e-11
3.690812382e-11
3.393132555e-11
3.101171112e-11
2.817056195e-11
2.541644183e-11
2.274401998e-11
2.013438219e-11
1.755718595e-11
1.497487041e-11
1.234887949e-11
9.647546557e-12
6.854950944e-12
3.979701011e-12
1.062299314e-12
-1.820412629e-12
-4.5552506e-12
-6.998420839e-12
-8.987837568e-12
-1.03621662e-11
-1.098583959e-11
-1.077827164e-11
-9.744445176e-12
-8.003118725e-12
-5.808235702e-12
-3.558851342e-12
-1.793169034e-12
-1.16314817e-12
-2.387688683e-12
-6.184476872e-12
-1.318317151e-11
-2.382542744e-11
-3.826005782e-11
-5.624413131e-11
-7.706260104e-11
-9.947992706e-11
-1.217368203e-10
-1.416039608e-10
-1.56502529e-10
-1.637015783e-10
-1.606015457e-10
-1.451267936e-10
-1.162067789e-10
-7.433016871e-11
-2.149383326e-11
4.029095485e-11
7.893043256e-11
8.373353276e-11
8.798629381e-11
9.212121279e-11
9.623006445e-11
1.003256956e-10
1.043974712e-10
1.084349565e-10
1.124288477e-10
1.163728424e-10
1.202622079e-10
1.240924907e-10
1.278594435e-10
1.315580882e-10
1.351832424e-10
1.387296097e-10
1.421913674e-10
1.455625497e-10
1.48836944e-10
1.520082284e-10
1.550697287e-10
1.580142905e-10
1.608348042e-10
1.635236384e-10
1.660731576e-10
1.684747201e-10
1.707199953e-10
1.7279984e-10
1.747051209e-10
1.764257026e-10
1.77951555e-10
1.79271727e-10
1.803750186e-10
1.812496682e-10
1.818830199e-10
1.822621911e-10
1.823735223e-10
1.822024459e-10
1.817339102e-10
1.809520302e-10
1.798399649e-10
1.783800232e-10
1.765535146e-10
1.743409627e-10
1.717215071e-10
1.686732321e-10
1.651732103e-10
1.611969729e-10
1.567186478e-10
1.517111647e-10
1.461455994e-10
1.399915817e-10
1.332167419e-10
1.257871477e-10
1.17666672e-10
1.088171004e-10
9.919794333e-11
8.876635334e-11
7.747704293e-11
6.528201896e-11
5.213023535e-11
3.796798243e-11
2.273801097e-11
6.380004639e-12
-1.117021008e-11
-2.998023162e-11
-5.012200455e-11
-7.16715732e-11
-9.470927355e-11
-1.193204906e-10
-1.455952535e-10
-1.736289662e-10
-2.035223874e-10
-2.353824601e-10
-2.693217051e-10
-3.054596227e-10
-3.439219261e-10
-3.848417763e-10
-4.28359544e-10
-4.746235903e-10
-5.237902921e-10
-5.760245876e-10
-6.315005872e-10
-6.904011709e-10
-7.529197382e-10
-8.192592314e-10
-8.896337145e-10
-9.642680303e-10
-1.043398465e-09
-1.127273598e-09
-1.216154303e-09
-1.310314336e-09
-1.410041019e-09
-1.515635449e-09
-1.627413154e-09
-1.745704686e-09
-1.870855688e-09
-2.003227946e-09
-2.143199477e-09
-2.291165231e-09
-2.44753752e-09
-2.612746264e-09
-2.787240117e-09
-2.971485939e-09
-3.165970291e-09
-3.371199207e-09
-3.587698516e-09
-3.816014881e-09
-4.056715694e-09
-4.310389469e-09
-4.577646343e-09
-4.859118298e-09
-5.155459237e-09
-5.467345677e-09
-5.795476478e-09
-6.140573388e-09
-6.503380668e-09
-6.884666123e-09
-7.285219801e-09
-7.70585511e-09
-8.147408142e-09
-8.610737844e-09
-9.096725656e-09
-9.606275267e-09
-1.014031263e-08
-1.069978481e-08
-1.12856607e-08
-1.18989293e-08
-1.25406002e-08
-1.321170206e-08
-1.391328236e-08
-1.464640659e-08
-1.541215711e-08
-1.621163262e-08
-1.704594643e-08
-1.791622574e-08
-1.882361081e-08
-1.976925284e-08
-2.075431317e-08
-2.177996194e-08
-2.284737571e-08
-2.395773681e-08
-2.5112231e-08
-2.631204631e-08
-2.755837028e-08
-2.885238909e-08
-3.019528445e-08
-3.15882326e-08
-3.303240169e-08
-3.452894933e-08
-3.607902092e-08
-3.768374678e-08
-3.93442406e-08
-4.106159607e-08
-4.283688544e-08
-4.467115632e-08
-4.656542962e-08
-4.852069729e-08
-5.053791915e-08
-5.261802111e-08
-5.476189244e-08
-5.697038307e-08
-5.924430198e-08
-6.158441345e-08
-6.399143611e-08
-6.646604026e-08
-6.900884468e-08
-7.1620416e-08
-7.430126542e-08
-7.705184743e-08
-7.987255789e-08
-8.276373136e-08
-8.572564105e-08
-8.875849603e-08
-9.186244014e-08
-9.503755104e-08
-9.828383937e-08
-1.01601247e-07
-1.04989647e-07
-1.084488436e-07
-1.119785704e-07
-1.155784918e-07
-1.192482027e-07
-1.229872282e-07
-1.267950246e-07
-1.306709813e-07
-1.3461442e-07
-1.386245977e-07
-1.427007072e-07
-1.468418801e-07
-1.510471883e-07
-1.553156464e-07
-1.596462152e-07
-1.64037804e-07
-1.684892749e-07
-1.729994461e-07
-1.775670955e-07
-1.821909662e-07
-1.868697706e-07
-1.916021953e-07
-1.963869067e-07
-2.012225575e-07
-2.061077908e-07
-2.110412506e-07
-2.160215829e-07
-2.210474479e-07
-2.261175258e-07
-2.312305238e-07
-2.363851855e-07
-2.415803004e-07
-2.468147097e-07
-2.52087321e-07
-2.57397112e-07
-2.627431464e-07
-2.681245802e-07
-2.735406746e-07
-2.789908088e-07
-2.844744886e-07
-2.899913607e-07
-2.955412242e-07
-3.011240452e-07
-3.067399691e-07
-3.123893334e-07
-3.180726838e-07
-3.237907882e-07
-3.295446514e-07
-3.353355301e-07
-3.411649508e-07
-3.470347248e-07
-3.529469629e-07
-3.589040971e-07
-3.649088961e-07
-3.709644814e-07
-3.770743501e-07
-3.832423888e-07
-3.89472898e-07
-3.957706088e-07
-4.021407046e-07
-4.085888427e-07
-4.151211736e-07
-4.217443634e-07
-4.28465618e-07
-4.352927043e-07
-4.422339729e-07
-4.492983828e-07
-4.564955276e-07
-4.638356557e-07
-4.713296977e-07
-4.789892972e-07
-4.868268267e-07
-4.948554234e-07
-5.030890155e-07
-5.11542345e-07
-5.202310002e-07
-5.291714463e-07
-5.383810536e-07
-5.478781232e-07
-5.576819264e-07
-5.678127234e-07
-5.78291789e-07
-5.891414293e-07
-6.003847846e-07
-6.120483774e-07
-6.240783487e-07
-6.365879057e-07
-6.49664603e-07
-6.634388991e-07
-6.777299757e-07
-6.925671306e-07
-7.079837941e-07
-7.24014733e-07
-7.406964796e-07
-7.580672965e-07
-7.761672713e-07
-7.950383963e-07
-8.14724643e-07
-8.35271614e-07
-8.567491378e-07
-8.795379557e-07
-9.033825637e-07
-9.283317526e-07
-9.544428651e-07
-9.816901979e-07
-1.01014852e-06
-1.039937568e-06
-1.071120549e-06
-1.103762298e-06
-1.137930629e-06
-1.173696017e-06
-1.211131592e-06
-1.250313244e-06
-1.291319712e-06
-1.334232675e-06
-1.379136912e-06
-1.426120377e-06
-1.475274353e-06
-1.526693593e-06
-1.580476438e-06
-1.636724983e-06
-1.695545237e-06
-1.757047278e-06
-1.821345455e-06
-1.88855855e-06
-1.95881002e-06
-2.032228182e-06
-2.108946477e-06
-2.189103709e-06
-2.272844324e-06
-2.360318726e-06
-2.451683581e-06
-2.547102209e-06
-2.646744962e-06
-2.750789684e-06
-2.859422198e-06
-2.972836896e-06
-3.091237352e-06
-3.214837085e-06
-3.343860394e-06
-3.478543341e-06
-3.619134937e-06
-3.765898452e-06
-3.919113078e-06
-4.079075818e-06
-4.246103813e-06
-4.420537067e-06
-4.60274185e-06
-4.793114703e-06
-4.992087396e-06
-5.200132915e-06
-5.417772831e-06
-5.645586286e-06
-5.884221037e-06
-6.134406998e-06
-6.396972915e-06
-6.672866903e-06
-6.9631817e-06
-7.269185853e-06
-7.592362153e-06
-7.934455035e-06
-8.297529193e-06
-8.68404172e-06
-9.096931472e-06
-9.539729173e-06
-1.001669354e-05
-1.053297936e-05
-1.109484507e-05
-1.170990909e-05
-1.238746644e-05
-1.313887966e-05
-1.397806154e-05
-1.4922071e-05
-1.599184879e-05
-1.721312552e-05
-1.861754219e-05
-2.024403296e-05
-2.214053107e-05
-2.436607304e-05
-2.699339396e-05
-3.011212747e-05
-3.383275102e-05
-3.829144837e-05
-4.365610245e-05
-5.013367813e-05
-5.797931687e-05
-6.750753609e-05
-7.910601841e-05
-9.325258348e-05
-0.000110536073
-0.0001316820435
-0.0001575843622
-0.0001893440539
-0.000228317043
-0.0002761728086
-0.0003349664209
-0.0004072269725
-0.0004960660959
-0.0006053110567
-0.0007396679229
-0.0009049214778
-0.001108180034
-0.001358175017
-0.001665627334
-0.002043695074
-0.002508520147
-0.003079895087
-0.003782075676
-0.004644770123
-0.005704341676
-0.007005268801
-0.008601915236
-0.01056067222
-0.01296254603
-0.01590627681
-0.01951208879
-0.02392618726
-0.02932613457
-0.03592725456
-0.04399023142
-0.05383008498
-0.06582671558
-0.08043721816
-0.09821015967
-0.1198019958
-0.1459957603
-0.1777220912
-0.2160825419
-0.2623749651
-0.3181206226
-0.3850916922
-0.4653393561
-0.5612190511
-0.6754117873
-0.8109380011
-0.9711597722
-1.1597683
-1.380746958
-1.638308412
-1.93679523
-2.280538195
-2.673665366
-3.119856539
-3.622039909
-4.182031288
-4.800120791
-5.474617576
-6.201369666
-6.973282914
-7.779867759
-8.606850962
-9.435886755
-10.24440555
-11.00563127
-11.68878555
-12.25949757
-12.68037356
-12.91172323
-12.91235731
-12.64034435
-12.05381882
-11.11140706
-9.772813201
-7.999044995
-5.752765334
-2.999421188
0.2875991955
4.109718347
8.396865641
13.47067834
18.69879185
27.55346443
36.13938686
43.72204755
38.76758519
52.7093612
63.27329561
73.14552353
83.44905176
94.53216231
106.5430324
119.1216264
132.7447872
148.2944028
155.6449411
180.1481427
127.502252
138.1309633
137.046354
125.2422253
57.46384399
9.988518339
-50.49891796
-113.6065158
-158.595871
-207.6983257
-248.8455602
-286.2126007
-325.3331057
-373.4790211
-427.802461
-424.8625031
-467.961358
-477.8904287
-490.5809443
-488.1637452
-473.1662423
-449.3997763
-420.2488746
-381.9949751
-326.6113096
-276.7319201
-232.0905537
-191.813359
-157.3396496
-130.8278459
-110.7884275
-95.46853346
-83.63478923
-67.3087224
-53.99431837
-45.35844608
-37.45069053
-30.55260135
-24.73459359
-19.93267285
-16.02250694
-12.82952195
-10.27956266
-8.225389042
-6.573204742
-5.245967918
-4.180986245
-3.327459389
-2.644286292
-2.098228861
-1.662413949
-1.315128108
-1.03882401
-0.8193468946
-0.6452908691
-0.5074779439
-0.3985347949
-0.3125482658
-0.2447848793
-0.1914625393
-0.1495649679
-0.116691109
-0.09093314744
-0.07077789952
-0.05502729554
-0.04273437839
-0.03315191324
-0.02569121407
-0.019889227
-0.01538227008
-0.01188512652
-0.00917443308
-0.007075506505
-0.005451915927
-0.004197243616
-0.003228586068
-0.002481436405
-0.001905660945
-0.001462340927
-0.001121297055
-0.0008591520441
-0.0006578163526
-0.0005033062648
-0.0003848225752
-0.0002940333231
-0.0002245160634
-0.0001713246998
-0.0001306534461
-9.957642438e-05
-7.584609148e-05
-5.773736689e-05
-4.392722103e-05
-3.340174839e-05
-2.53845199e-05
-1.928139281e-05
-1.463803587e-05
-1.110726887e-05
-8.423970046e-06
-6.385813601e-06
-4.838494702e-06
-3.664405283e-06
-2.773961311e-06
-2.098965602e-06
-1.58753208e-06
-1.200206856e-06
-9.070059529e-07
-6.851545587e-07
-5.17362793e-07
-3.905114917e-07
-2.946511259e-07
-2.222397031e-07
-1.675629397e-07
-1.262933628e-07
-9.515523963e-08
-7.167007234e-08
-5.396338859e-08
-4.061814168e-08
-3.056353234e-08
-2.299073509e-08
-1.72890494e-08
-1.2997548e-08
-9.768477956e-09
-7.339570105e-09
-5.51309783e-09
-4.140046768e-09
-3.108153171e-09
-2.332869155e-09
-1.750541402e-09
-1.313263085e-09
-9.849899871e-10
-7.386115736e-10
-5.5374296e-10
-4.150609607e-10
-3.110505838e-10
-2.330610575e-10
-1.745951887e-10
-1.307745562e-10
-9.793715872e-11
-7.333480921e-11
-5.49056166e-11
-4.110297431e-11
-3.076705903e-11
-2.302830034e-11
-1.723488683e-11
-1.289833858e-11
-9.65265435e-12
-7.223655904e-12
-5.405989858e-12
-4.045878629e-12
-3.028186341e-12
-2.266722546e-12
-1.696974856e-12
-1.270663245e-12
-9.516602339e-13
-7.129350024e-13
-5.342648864e-13
-4.005218794e-13
-3.003898898e-13
-2.254046305e-13
-1.692351064e-13
-1.27145983e-13
-9.559535986e-14
-7.193388078e-14
-5.417967773e-14
-4.085005238e-14
-3.083560179e-14
-2.330609233e-14
-1.764007803e-14
-1.337227534e-14
-1.015421478e-14
-7.72481978e-15
-5.888407451e-15
-4.498238544e-15
-3.444215083e-15
-2.643678605e-15
-2.034527827e-15
-1.570068251e-15
-1.215158649e-15
-9.433256565e-16
-7.346038826e-16
-5.739171962e-16
-4.498660287e-16
-3.538179772e-16
-2.792252053e-16
-2.211124055e-16
-1.756916992e-16
-1.400732748e-16
-1.120475808e-16
-8.992113201e-17
-7.239261031e-17
-5.845941537e-17
-4.734689893e-17
-3.845480857e-17
-3.131646319e-17
-2.556805103e-17
-2.092491408e-17
-1.716362426e-17
-1.410825181e-17
-1.161976219e-17
-9.587875212e-18
-7.92489483e-18
-6.560859529e-18
-5.439693182e-18
-4.516350742e-18
-3.754563394e-18
-3.125003391e-18
-2.603905912e-18
-2.171948326e-18
-1.81339749e-18
-1.515423179e-18
-1.26749052e-18
-1.060972982e-18
-8.887797701e-19
-7.450668848e-19
-6.250460951e-19
-5.247132693e-19
-4.407806116e-19
-3.705106843e-19
-3.11639232e-19
-2.622767066e-19
-2.208611253e-19
-1.860963637e-19
-1.56908923e-19
-1.323841091e-19
-1.117648101e-19
-9.441856864e-20
-7.980857713e-20
-6.75189994e-20
-5.715995116e-20
-4.842578439e-20
-4.105443105e-20
-3.483503223e-20
-2.958588724e-20
-2.514736589e-20
-2.13994654e-20
-1.822544268e-20
-1.553595464e-20
-1.326183474e-20
-1.133663204e-20
-9.705514445e-21
-8.314617254e-21
-7.131569712e-21
-6.119667391e-21
-5.262491733e-21
-4.531766242e-21
-3.905269752e-21
-3.369035554e-21
-2.913062176e-21
-2.51839085e-21
-2.187871811e-21
-1.905734826e-21
-1.661919158e-21
-1.454010801e-21
-1.279016115e-21
-1.12893052e-21
-9.952881586e-22
-8.729270368e-22
-7.671745478e-22
-6.726296356e-22
-5.880159358e-22
-5.1915823e-22
-4.581979121e-22
-4.069584007e-22
-3.601081746e-22
-3.171914722e-22
-2.797573561e-22
-2.432265273e-22
-2.180614767e-22
-1.980150086e-22
-1.779614721e-22
-1.576721111e-22
-1.396457444e-22
-1.322023428e-22
-1.216686083e-22
-1.043100504e-22
-9.292768647e-23
-8.01027021e-23
-6.928243977e-23
-5.546599501e-23
-4.309640786e-23
-3.408413166e-23
-3.064140075e-23
-2.799607719e-23
-2.55132156e-23
-2.426272085e-23
-2.57330994e-23
-2.461068729e-23
-1.765749249e-23
-1.278809005e-23
-8.946972328e-24
-4.605419821e-24
-3.329197372e-24
-5.513424958e-25
4.268827755e-24
8.804044107e-24
1.114750406e-23
1.134673248e-23
1.047721157e-23
1.124383009e-23
9.544683072e-24
1.084772169e-23
1.079477224e-23
8.896229897e-24
5.883754072e-24
6.220462183e-24
6.660847446e-24
7.953996461e-24
8.06260542e-24
8.248126959e-24
8.822887486e-24
6.927984712e-24
8.503950685e-24
9.176417355e-24
8.817321408e-24
9.690952874e-24
9.011661883e-24
1.060582404e-23
1.237771488e-23
1.195164459e-23
1.118064064e-23
1.136471115e-23
9.664857457e-24
1.153681655e-23
1.366185182e-23
1.356410953e-23
1.18834419e-23
1.10507476e-23
1.030202228e-23
6.54478032e-24
7.363792955e-24
6.92628237e-24
6.45715674e-24
6.284737878e-24
7.898288373e-24
8.740179136e-24
8.831732928e-24
8.736441823e-24
6.651380487e-24
2.957919531e-24
2.341269105e-24
3.798782966e-24
2.36429739e-24
2.772779555e-24
3.688528666e-24
3.878551071e-24
5.198917723e-24
4.921479335e-24
2.470961919e-24
2.654451088e-24
2.652136804e-24
1.922687421e-24
3.493396538e-24
2.895571799e-24
2.034952516e-24
1.077198783e-24
1.863302621e-24
2.160526338e-24
4.632418404e-24
5.109064286e-24
4.468386424e-24
3.291310673e-24
1.415391678e-24
1.13688108e-24
3.483997596e-24
4.768923714e-24
6.5994771e-24
6.846620042e-24
6.55045617e-24
5.91408966e-24
4.480927856e-24
2.247069865e-24
-4.294492387e-26
-2.145893687e-24
-2.633596091e-24
-2.867187734e-24
-2.741910571e-24
-1.359479274e-24
-8.957331551e-25
-5.814669787e-25
-5.052348819e-25
-6.782175265e-25
-8.610531855e-25
-3.884732725e-25
-5.640084232e-25
2.679045927e-24
4.935158621e-24
4.679605085e-24
4.32966073e-24
3.432222025e-24
2.797287504e-24
3.006486536e-24
4.477741854e-24
4.456046096e-24
3.117927731e-24
1.996407699e-24
5.148404232e-25
-5.06039266e-25
4.627849391e-25
4.301816062e-25
9.100035435e-25
2.208567259e-25
-4.430131156e-25
-5.412496673e-25
-8.612687546e-25
-9.869894836e-25
-1.523172965e-24
-1.618360648e-24
-1.671677336e-24
-2.608271669e-24
-2.082722771e-24
-5.637117095e-25
7.958342789e-26
8.077761743e-25
6.655922444e-25
2.475226027e-25
3.023287703e-25
3.516164904e-25
6.292407523e-25
7.053440302e-25
-4.680791313e-26
-3.531394167e-25
-1.492707579e-24
-1.753039467e-24
-2.153194093e-24
-1.956631017e-24
-2.361860423e-24
-1.881224063e-24
-3.794442133e-25
-3.266441202e-25
-4.66236949e-25
-7.042638345e-25
-9.254549106e-25
-1.072976511e-24
-2.242054434e-25
-3.703361625e-25
-1.305030564e-24
-1.767825588e-24
-2.680502367e-24
-2.797903938e-24
-2.157779962e-24
-6.454022044e-25
-5.27711087e-26
2.392336691e-25
3.590803583e-25
7.950538613e-25
5.471403236e-25
-2.28065075e-25
-1.204623377e-24
-1.520231087e-24
-1.833686441e-24
-1.674230181e-24
-1.534431829e-24
-1.829502222e-24
-2.334833251e-24
-3.000326237e-24
-2.02482107e-24
-9.028119565e-25
3.852353617e-25
5.774385013e-25
2.471463684e-25
-4.519476606e-25
-1.990590903e-27
6.685206537e-25
1.576540677e-24
1.41204786e-24
1.062254787e-24
1.426673097e-24
1.451847252e-24
6.67739786e-25
-4.192005637e-25
-1.028248798e-24
-1.79225498e-24
-1.980291728e-24
-1.870182161e-24
-1.677687063e-24
-1.127603104e-24
-3.165201874e-25
-3.079055565e-25
4.867819573e-25
7.651659385e-25
7.264856231e-25
3.574596952e-25
-8.668202704e-27
3.490891284e-25
1.627677809e-26
-4.774937597e-25
-7.963090116e-25
-1.006495314e-24
-1.656762388e-24
-2.213637368e-24
-1.844164382e-24
-1.520411892e-24
-1.425977135e-24
-1.04933264e-24
-7.651000424e-25
-3.684344349e-25
-2.773232431e-25
-4.059768775e-25
-5.575671916e-25
-8.308836001e-25
-1.195613658e-24
-1.045439049e-24
-3.190438135e-25
2.861498622e-25
9.314529892e-25
1.344033141e-24
1.100516833e-24
4.326218312e-25
-1.384074444e-25
5.163837831e-26
-5.842353786e-25
-5.29600211e-25
-5.973132996e-25
-5.546093725e-25
-2.648843983e-25
-2.151497412e-25
-3.289737754e-25
-3.574548754e-25
-4.172176135e-25
-5.872217132e-25
-9.28545419e-25
-1.035867914e-24
-9.280115797e-25
-4.673113073e-25
-5.985979136e-26
6.207335628e-26
-2.645873598e-26
-1.580116809e-25
-4.500602163e-25
-6.860192223e-25
-4.046502176e-25
-1.288068931e-25
-4.665464971e-25
-2.888931327e-25
-1.291380341e-25
1.033338246e-26
-2.676151007e-24
3.367900152e-25
7.326593649e-26
-1.29783742e-25
2.941393546e-25
-3.33468503e-25
-6.627405931e-26
1.272311944e-24
1.078248224e-26
1.859357307e-26
9.483061601e-25
-6.631481846e-25
-2.749194049e-25
-5.662853041e-25
7.509102026e-26
5.828205659e-26
-2.316573066e-25
1.393954162e-25
1.991116522e-25
3.150520523e-25
-1.209446734e-25
3.039027075e-26
-1.754192145e-26
9.49866101e-26
-7.425415911e-27
3.570235527e-26
1.854668451e-26
-1.6124168e-26
-1.490350272e-26
-8.68717826e-27
-5.831273399e-28
-1.729042395e-27
-9.857223505e-27
1.876079787e-26
3.855834307e-26
2.353313809e-26
-1.34812788e-26
-2.000809313e-27
4.640847103e-27
-6.762568997e-29
-2.153668054e-26
-1.006984242e-26
-1.77316752e-27
-7.641792732e-27
-1.754763167e-26
-1.56763111e-26
1.60833154e-27
6.704746918e-27
-9.417222395e-27
-6.403633513e-27
-1.011235995e-27
-1.58566496e-26
-3.016770165e-28
6.435324516e-27
1.998407465e-26
-4.320148384e-26
-2.886490903e-26
3.799696727e-26
3.579236056e-28
-1.61386512e-28
-1.684703858e-26
-2.196631482e-28
8.13602405e-27
-8.312559719e-27
-9.66930434e-27
-1.434125744e-28
2.60521393e-27
-5.601203203e-29
5.876613216e-29
-3.423252959e-28
-7.801801059e-29
-3.344643578e-28
2.096133894e-27
3.849201352e-27
-1.351332635e-26
-6.203796714e-27
1.296433745e-26
-8.339428932e-27
7.442664825e-27
-2.466402351e-28
5.976166886e-27
1.480653222e-28
-1.014230207e-27
-1.602301541e-27
3.558397229e-27
-1.786964169e-27
1.398560608e-29
-1.86044682e-28
-8.236807893e-28
-2.474443161e-28
2.091216191e-27
6.261347197e-29
4.747974444e-28
1.057790722e-29
2.106232087e-28
4.487133851e-29
-2.058404379e-28
-2.133014925e-28
1.007155766e-30
3.319104852e-28
6.352052634e-30
-1.424764506e-28
1.617763702e-29
-1.722638421e-28
-1.66416591e-28
-1.102667974e-28
-2.159328453e-28
-3.723903174e-28
4.513614558e-28
9.102958058e-30
2.739435566e-29
4.05292563e-29
3.654693428e-30
1.771300888e-28
2.758116073e-30
1.774178769e-31
4.231912424e-29
1.207482882e-30
1.229174306e-28
4.781662555e-29
-8.664497865e-29
4.255709111e-29
-1.289383311e-28
1.814820951e-30
3.160175444e-29
-6.964654732e-31
-6.74494789e-29
5.346172326e-29
6.61384584e-31
-1.624549963e-29
-3.128923341e-32
-1.451761508e-28
1.268504435e-28
3.277236111e-30
-4.047439993e-29
7.632780284e-29
-8.108889566e-29
-2.70738509e-29
2.700535224e-28
5.704454549e-29
-2.286378538e-28
9.016195396e-31
-2.229849254e-28
9.433300944e-29
-5.209716474e-29
-6.731666799e-28
-8.89279394e-29
6.993565068e-28
2.32780726e-28
2.596656266e-28
2.576550084e-28
7.398629812e-30
-2.018580997e-28
-3.187828858e-28
-2.671441705e-28
-1.305787631e-28
1.454006955e-29
-2.596221161e-28
4.542362808e-28
-1.743374374e-28
4.212946507e-28
-1.869611436e-28
5.464288641e-28
5.942039842e-28
-2.207170083e-28
-3.838702728e-28
1.467555061e-30
-5.728698956e-30
-4.60633172e-29
4.647283246e-28
-2.194125697e-28
-2.852989162e-28
-1.923947742e-29
-5.761594256e-29
-1.30398833e-28
-5.891863895e-28
-2.229994797e-28
1.754816288e-28
3.890796209e-28
1.314850028e-28
2.968454541e-28
1.81225264e-29
-5.078725441e-29
4.688368207e-29
7.916651323e-28
-9.315044458e-29
1.723756382e-28
2.006919876e-30
1.504555334e-28
-9.988774111e-29
4.119347736e-28
2.477292797e-28
-6.332476326e-29
3.975332717e-28
2.534526293e-28
2.027362974e-28
-1.0466018e-28
1.110711665e-28
1.308194424e-28
-1.952078978e-28
-5.545630743e-29
-2.502815436e-28
6.309656684e-29
-1.101897737e-28
-1.988778123e-28
-2.640426018e-28
-7.294069435e-29
2.144307316e-28
6.252755373e-30
-3.467066861e-29
1.098656529e-28
2.1489156e-28
-2.180915357e-29
-2.666179288e-29
-2.204185165e-29
3.516735317e-28
2.532467067e-30
1.304423494e-28
8.372726225e-31
-1.098866978e-30
8.220577276e-29
4.118554083e-29
-5.705031947e-31
3.259562601e-29
-2.046997388e-29
1.045959306e-29
4.2809089e-29
4.092315152e-29
-1.506756623e-28
-4.222063773e-29
1.455555195e-30
-5.32228474e-33
1.137576742e-31
1.039531866e-28
1.986864543e-29
-2.637577033e-28
2.316763641e-29
-2.151478321e-29
-3.404403968e-29
-2.810962337e-30
-1.42899457e-28
-5.622294991e-31
-3.966530493e-32
1.526447716e-29
-9.822514448e-29
-1.790827141e-29
-2.211136491e-28
-3.856911863e-28
4.883049212e-29
-2.439715626e-29
)
;

boundaryField
{
    inlet
    {
        type            calculated;
        value           uniform 0;
    }
    outlet
    {
        type            calculated;
        value           uniform -2.439715668e-29;
    }
    wall
    {
        type            empty;
    }
}


// ************************************************************************* //
