/*--------------------------------*- C++ -*----------------------------------*\
  =========                 |
  \\      /  F ield         | OpenFOAM: The Open Source CFD Toolbox
   \\    /   O peration     | Website:  https://openfoam.org
    \\  /    A nd           | Version:  7
     \\/     M anipulation  |
\*---------------------------------------------------------------------------*/
FoamFile
{
    version     2.0;
    format      ascii;
    class       volScalarField;
    location    "0.000558243009";
    object      ddt0(rho,C7H15-1);
}
// * * * * * * * * * * * * * * * * * * * * * * * * * * * * * * * * * * * * * //

dimensions      [1 -3 -1 0 0 0 0];

internalField   nonuniform List<scalar> 
1500
(
-4.933780492e-14
-1.476933623e-13
-2.209576383e-13
-2.222168421e-13
-1.690263835e-13
-1.036180081e-13
-5.322790619e-14
-2.350808181e-14
-9.097584476e-15
-3.183528969e-15
-1.141183207e-15
-6.120130206e-16
-5.926744981e-16
-7.145828005e-16
-8.54742912e-16
-9.755654951e-16
-1.065948961e-15
-1.122702737e-15
-1.145240247e-15
-1.134078346e-15
-1.090429488e-15
-1.016064401e-15
-9.132332597e-16
-7.845985391e-16
-6.331698045e-16
-4.622413011e-16
-2.753351221e-16
-7.615215667e-17
1.314688562e-16
3.435859651e-16
5.56185904e-16
7.652179464e-16
9.666346127e-16
1.156443424e-15
1.330771939e-15
1.485946561e-15
1.618583379e-15
1.725685901e-15
1.804744652e-15
1.853831004e-15
1.871677707e-15
1.857739121e-15
1.812225487e-15
1.73610756e-15
1.6310903e-15
1.49955678e-15
1.344485769e-15
1.169348297e-15
9.779898116e-16
7.745049882e-16
5.63112232e-16
3.48033967e-16
1.333876473e-16
-7.690906954e-17
-2.792171156e-16
-4.702383839e-16
-6.470623176e-16
-8.071981606e-16
-9.485946922e-16
-1.069649227e-15
-1.169207384e-15
-1.246554649e-15
-1.301400466e-15
-1.333854919e-15
-1.344398188e-15
-1.333842744e-15
-1.303288677e-15
-1.254073007e-15
-1.18771438e-15
-1.105855278e-15
-1.010204315e-15
-9.024815235e-16
-7.843695935e-16
-6.574737906e-16
-5.232927216e-16
-3.832012043e-16
-2.384457393e-16
-9.015184237e-17
6.065831086e-17
2.130402925e-16
3.660968367e-16
5.189453922e-16
6.706869782e-16
8.203791973e-16
9.670156795e-16
1.109513659e-15
1.246710566e-15
1.377369911e-15
1.500195994e-15
1.613856401e-15
1.717010876e-15
1.808344786e-15
1.8866053e-15
1.950638229e-15
1.999423679e-15
2.032108617e-15
2.048034833e-15
2.046760914e-15
2.028077319e-15
1.992013907e-15
1.9388398e-15
1.869055872e-15
1.783380531e-15
1.682729913e-15
1.568193873e-15
1.441009274e-15
1.302532284e-15
1.154211122e-15
9.975605789e-16
8.341392744e-16
6.655302008e-16
4.933246243e-16
3.191091031e-16
1.444548692e-16
-2.909122489e-17
-2.000152322e-16
-3.668450063e-16
-5.281602361e-16
-6.826040736e-16
-8.28896411e-16
-9.658485776e-16
-1.092378796e-15
-1.207527587e-15
-1.310472118e-15
-1.400538438e-15
-1.477210741e-15
-1.540137044e-15
-1.589130819e-15
-1.624168709e-15
-1.645384594e-15
-1.653060643e-15
-1.647616228e-15
-1.629595625e-15
-1.599655372e-15
-1.558552108e-15
-1.507131372e-15
-1.446317569e-15
-1.377105019e-15
-1.300549552e-15
-1.217759984e-15
-1.129888525e-15
-1.038119124e-15
-9.436529164e-16
-8.476899349e-16
-7.514069078e-16
-6.559310884e-16
-5.623107393e-16
-4.714833495e-16
-3.842432025e-16
-3.012101818e-16
-2.228020799e-16
-1.492126863e-16
-8.039796672e-17
-1.607203824e-17
4.428541473e-17
1.014097682e-16
1.562199037e-16
2.09775631e-16
2.632255217e-16
3.177479338e-16
3.74488174e-16
4.344956029e-16
4.986644586e-16
5.676822767e-16
6.419893217e-16
7.217521013e-16
8.068527571e-16
8.96895473e-16
9.912295742e-16
1.088987841e-15
1.189137386e-15
1.290539344e-15
1.392012819e-15
1.492398298e-15
1.590615499e-15
1.685711023e-15
1.776892329e-15
1.863545361e-15
1.945234932e-15
2.021688384e-15
2.092764859e-15
2.158413652e-15
2.21862633e-15
2.273387807e-15
2.322631602e-15
2.366203958e-15
2.403840637e-15
2.435158463e-15
2.459662639e-15
2.476768829e-15
2.485837904e-15
2.486220065e-15
2.477304507e-15
2.458570585e-15
2.429636831e-15
2.390304446e-15
2.340592805e-15
2.280765028e-15
2.211342217e-15
2.133104831e-15
2.047080475e-15
1.95451638e-15
1.856835598e-15
1.755576259e-15
1.652313744e-15
1.548568259e-15
1.445701742e-15
1.344811995e-15
1.246634411e-15
1.151464917e-15
1.059119303e-15
9.689439599e-16
8.79890335e-16
7.906604132e-16
6.999217242e-16
6.065798068e-16
5.100842284e-16
4.107321032e-16
3.099226027e-16
2.103105732e-16
1.158067005e-16
3.137944675e-17
-3.737053507e-17
-8.486839377e-17
-1.064294789e-16
-9.926879414e-17
-6.355796077e-17
-3.399927728e-18
7.243118441e-17
1.50146966e-16
2.111507068e-16
2.329146795e-16
1.905977462e-16
5.940030842e-17
-1.824359147e-16
-5.501732173e-16
-1.048955188e-15
-1.670388876e-15
-2.38976672e-15
-3.164391513e-15
-3.93345092e-15
-4.619827244e-15
-5.134113649e-15
-5.381021222e-15
-5.2682173e-15
-4.718187292e-15
-3.683175317e-15
-2.166185403e-15
-2.313566118e-16
2.026405626e-15
3.428151865e-15
3.597683762e-15
3.758941785e-15
3.91844259e-15
4.077519191e-15
4.236257069e-15
4.394367994e-15
4.551699816e-15
4.708118587e-15
4.863525993e-15
5.017820605e-15
5.170880533e-15
5.32258288e-15
5.47278288e-15
5.621335633e-15
5.768098771e-15
5.912916742e-15
6.05563294e-15
6.196085611e-15
6.334112597e-15
6.469543165e-15
6.602193917e-15
6.73188727e-15
6.858432196e-15
6.981642494e-15
7.101302513e-15
7.217213074e-15
7.329153109e-15
7.436908524e-15
7.540237785e-15
7.638910711e-15
7.732673623e-15
7.821273186e-15
7.9044463e-15
7.981909318e-15
8.053381889e-15
8.118568763e-15
8.177156161e-15
8.228827327e-15
8.273251482e-15
8.310080648e-15
8.338954417e-15
8.359495995e-15
8.37132085e-15
8.374017386e-15
8.367159728e-15
8.350310691e-15
8.323005101e-15
8.284756198e-15
8.235064472e-15
8.173396836e-15
8.099202644e-15
8.011896545e-15
7.910875684e-15
7.795500017e-15
7.665098278e-15
7.518963826e-15
7.356354177e-15
7.176490656e-15
6.978551761e-15
6.761663775e-15
6.524916846e-15
6.267337451e-15
5.987907408e-15
5.685539348e-15
5.359094351e-15
5.0073529e-15
4.629026031e-15
4.222751351e-15
3.787069446e-15
3.320440278e-15
2.821220266e-15
2.2876651e-15
1.717903068e-15
1.109957584e-15
4.61700307e-16
-2.291214719e-16
-9.649266807e-16
-1.748292065e-15
-2.581979377e-15
-3.468937092e-15
-4.412320648e-15
-5.415515657e-15
-6.482127013e-15
-7.616042804e-15
-8.821405513e-15
-1.010267199e-14
-1.14646085e-14
-1.291232162e-14
-1.445129675e-14
-1.608740879e-14
-1.782695467e-14
-1.967669055e-14
-2.164385451e-14
-2.373620639e-14
-2.596206734e-14
-2.833034347e-14
-3.085058525e-14
-3.353301621e-14
-3.638858496e-14
-3.942901037e-14
-4.266682286e-14
-4.611543874e-14
-4.978918025e-14
-5.370336801e-14
-5.787435698e-14
-6.231959475e-14
-6.705770628e-14
-7.210854376e-14
-7.749325542e-14
-8.323436171e-14
-8.935582454e-14
-9.588311487e-14
-1.028433036e-13
-1.10265123e-13
-1.181790585e-13
-1.266174116e-13
-1.356144126e-13
-1.452062572e-13
-1.554312265e-13
-1.66329748e-13
-1.779444871e-13
-1.903204211e-13
-2.035049185e-13
-2.175478271e-13
-2.32501524e-13
-2.484210241e-13
-2.653640125e-13
-2.833909416e-13
-3.025650659e-13
-3.229525122e-13
-3.446223288e-13
-3.676465221e-13
-3.921001059e-13
-4.180611079e-13
-4.456106022e-13
-4.748327323e-13
-5.058146843e-13
-5.38646695e-13
-5.73422033e-13
-6.102369382e-13
-6.491906034e-13
-6.903850946e-13
-7.339252938e-13
-7.799187793e-13
-8.284757538e-13
-8.797088863e-13
-9.337332071e-13
-9.906659358e-13
-1.0506263e-12
-1.113735363e-12
-1.180115796e-12
-1.249891674e-12
-1.323188206e-12
-1.400131495e-12
-1.48084824e-12
-1.565465448e-12
-1.654110123e-12
-1.746908917e-12
-1.843987803e-12
-1.945471701e-12
-2.051484098e-12
-2.162146677e-12
-2.277578876e-12
-2.397897516e-12
-2.523216364e-12
-2.653645672e-12
-2.789291785e-12
-2.930256659e-12
-3.07663744e-12
-3.228526006e-12
-3.3860085e-12
-3.549164927e-12
-3.718068679e-12
-3.892786103e-12
-4.073376096e-12
-4.259889685e-12
-4.452369611e-12
-4.650849962e-12
-4.855355822e-12
-5.065902879e-12
-5.282497155e-12
-5.505134684e-12
-5.733801244e-12
-5.968472103e-12
-6.20911186e-12
-6.455674197e-12
-6.708101808e-12
-6.966326236e-12
-7.230267844e-12
-7.499835791e-12
-7.774928004e-12
-8.055431286e-12
-8.341221363e-12
-8.632163076e-12
-8.928110543e-12
-9.228907365e-12
-9.534386936e-12
-9.844372758e-12
-1.015867878e-11
-1.04771098e-11
-1.079946197e-11
-1.112552319e-11
-1.145507379e-11
-1.178788688e-11
-1.212372918e-11
-1.246236157e-11
-1.280353977e-11
-1.314701505e-11
-1.349253508e-11
-1.383984454e-11
-1.418868616e-11
-1.453880132e-11
-1.488993115e-11
-1.524181723e-11
-1.55942026e-11
-1.594683277e-11
-1.629945654e-11
-1.665182705e-11
-1.700370276e-11
-1.73548485e-11
-1.770503651e-11
-1.805404737e-11
-1.840167124e-11
-1.87477088e-11
-1.909197244e-11
-1.943428729e-11
-1.977449244e-11
-2.011244209e-11
-2.044800654e-11
-2.078107369e-11
-2.111155008e-11
-2.14393621e-11
-2.176445745e-11
-2.208680621e-11
-2.240640246e-11
-2.272326547e-11
-2.303744126e-11
-2.334900409e-11
-2.365805791e-11
-2.396473804e-11
-2.426921288e-11
-2.45716856e-11
-2.487239595e-11
-2.517162216e-11
-2.546968309e-11
-2.576694001e-11
-2.606379891e-11
-2.636071304e-11
-2.665818474e-11
-2.69567684e-11
-2.725707301e-11
-2.755976463e-11
-2.78655694e-11
-2.817527661e-11
-2.848974173e-11
-2.880988941e-11
-2.913671737e-11
-2.947129933e-11
-2.981478839e-11
-3.016842051e-11
-3.053351013e-11
-3.091152734e-11
-3.130004095e-11
-3.170500203e-11
-3.213107435e-11
-3.258510806e-11
-3.305845848e-11
-3.355310875e-11
-3.407124325e-11
-3.461516455e-11
-3.518731956e-11
-3.579030007e-11
-3.642684804e-11
-3.709986347e-11
-3.781240929e-11
-3.856770111e-11
-3.937027349e-11
-4.02398331e-11
-4.116511663e-11
-4.214993763e-11
-4.319846437e-11
-4.431100592e-11
-4.549283094e-11
-4.675135861e-11
-4.809141187e-11
-4.951801877e-11
-5.103643279e-11
-5.265212415e-11
-5.437078166e-11
-5.619831787e-11
-5.8140873e-11
-6.020481887e-11
-6.239676467e-11
-6.472355939e-11
-6.719229732e-11
-6.98103225e-11
-7.258523253e-11
-7.552488407e-11
-7.863739838e-11
-8.193116623e-11
-8.541485516e-11
-8.909741527e-11
-9.298808834e-11
-9.709641475e-11
-1.014322446e-10
-1.060057473e-10
-1.108274242e-10
-1.159081224e-10
-1.212590492e-10
-1.2689179e-10
-1.328183267e-10
-1.390510598e-10
-1.456028308e-10
-1.524869508e-10
-1.597172273e-10
-1.673079988e-10
-1.752741687e-10
-1.836312455e-10
-1.92395386e-10
-2.015834408e-10
-2.112130073e-10
-2.213024837e-10
-2.31871131e-10
-2.429391353e-10
-2.545276815e-10
-2.666590262e-10
-2.793565806e-10
-2.926449956e-10
-3.065502572e-10
-3.210997854e-10
-3.363225417e-10
-3.522491437e-10
-3.689119891e-10
-3.863453904e-10
-4.045857197e-10
-4.236715701e-10
-4.436439344e-10
-4.645464052e-10
-4.86425411e-10
-5.093304814e-10
-5.333145795e-10
-5.584344957e-10
-5.847513482e-10
-6.12331219e-10
-6.412459777e-10
-6.715743694e-10
-7.034034635e-10
-7.368306067e-10
-7.719660723e-10
-8.089366751e-10
-8.478907302e-10
-8.890048709e-10
-9.324934432e-10
-9.78621481e-10
-1.027722639e-09
-1.080223993e-09
-1.136680366e-09
-1.197821843e-09
-1.264619546e-09
-1.338376704e-09
-1.420854749e-09
-1.514447841e-09
-1.622424474e-09
-1.749261813e-09
-1.901108339e-09
-2.086423857e-09
-2.316864732e-09
-2.608508021e-09
-2.983543832e-09
-3.472614491e-09
-4.118046891e-09
-4.978317854e-09
-6.134221276e-09
-7.697383034e-09
-9.822014063e-09
-1.272112768e-08
-1.668890969e-08
-2.213156428e-08
-2.960983153e-08
-3.989756908e-08
-5.406243277e-08
-7.357694191e-08
-1.004712962e-07
-1.375435263e-07
-1.886483235e-07
-2.59093752e-07
-3.561857685e-07
-4.899750611e-07
-6.742805361e-07
-9.280906767e-07
-1.277480379e-06
-1.758230033e-06
-2.419399824e-06
-3.328201148e-06
-4.576626117e-06
-6.290454983e-06
-8.64147218e-06
-1.186400079e-05
-1.627723182e-05
-2.231530407e-05
-3.056771221e-05
-4.183342049e-05
-5.719307908e-05
-7.810502387e-05
-0.0001065323348
-0.0001451101764
-0.0001973650158
-0.0002679997674
-0.0003632627208
-0.0004914202029
-0.0006633573248
-0.0008933333898
-0.001199920336
-0.001607154019
-0.002145920712
-0.002855599698
-0.003785961911
-0.004999304036
-0.006572760461
-0.008600685423
-0.01119693055
-0.01449675815
-0.01865802774
-0.0238611755
-0.03030737862
-0.03821417137
-0.04780766205
-0.05931043195
-0.07292413465
-0.08880579707
-0.1070366948
-0.1275822443
-0.1502404679
-0.1745745156
-0.1998226566
-0.2247762307
-0.247613698
-0.2656839722
-0.2752237945
-0.2710149155
-0.2459568294
-0.1905191356
-0.09196498618
0.06675741311
0.3081426703
0.6592649313
1.176407795
1.886681137
3.031416292
4.592108852
6.773709004
9.403616451
13.47649943
18.52049376
24.3260427
30.19563515
34.52251157
34.52405005
28.82333202
19.55266126
10.33873462
4.417669764
1.237255894
1.794043972
1.898209644
2.638319125
3.405825701
4.369298477
4.419964464
3.953491092
3.076488162
2.506725108
1.609434489
0.836802092
0.2283135177
-0.1929961183
-0.3825764863
-0.4355862787
-0.3892632465
-0.3239510797
-0.2486334284
-0.1837669324
-0.1314861622
-0.09204252395
-0.06351664414
-0.04349663148
-0.02947635064
-0.01956398866
-0.01291719246
-0.008490765199
-0.005552776973
-0.003620498372
-0.002364314478
-0.00154897346
-0.001018309746
-0.0006713615388
-0.0004367183971
-0.000283227655
-0.0001848140313
-0.0001201076835
-7.77669019e-05
-5.018576207e-05
-3.228911934e-05
-2.071564355e-05
-1.32469399e-05
-8.448080745e-06
-5.36999755e-06
-3.401203608e-06
-2.145708474e-06
-1.347693822e-06
-8.422817582e-07
-5.234596022e-07
-3.232353928e-07
-1.981208127e-07
-1.20383593e-07
-7.239620274e-08
-4.299547493e-08
-2.514052261e-08
-1.441058736e-08
-8.044178079e-09
-4.326287814e-09
-2.198895838e-09
-1.014310827e-09
-3.796160379e-10
-5.902191362e-11
8.711105919e-11
1.40124778e-10
1.464010775e-10
1.316369306e-10
1.094952382e-10
8.678895882e-11
6.654558476e-11
4.978776962e-11
3.654511391e-11
2.64118827e-11
1.884121289e-11
1.328985019e-11
9.280705235e-12
6.422231115e-12
4.406706852e-12
2.999538285e-12
2.025914169e-12
1.357891827e-12
9.032016749e-13
5.961298288e-13
3.903904648e-13
2.537155946e-13
1.573942357e-13
9.500730669e-14
5.706400565e-14
3.405502286e-14
2.015626591e-14
1.180282034e-14
6.814894412e-15
3.861793552e-15
2.133092155e-15
1.350580581e-15
9.678805135e-16
6.028570445e-16
3.272837193e-16
1.578863164e-16
5.812655782e-17
2.809183718e-18
-2.501934146e-17
-3.649413225e-17
-3.874383332e-17
-3.62013405e-17
-3.152671975e-17
-2.624193915e-17
-2.115793885e-17
-1.66558133e-17
-1.286776607e-17
-9.790627612e-18
-7.354925699e-18
-5.465288302e-18
-4.022796442e-18
-2.936291652e-18
-2.127164683e-18
-1.469342262e-18
-1.008318775e-18
-6.883026658e-19
-4.672218919e-19
-3.153390879e-19
-2.114695707e-19
-1.40911013e-19
-9.334736296e-20
-6.15006964e-20
-4.030690973e-20
-2.628140234e-20
-1.704852724e-20
-1.100137903e-20
-7.060471102e-21
-4.505045358e-21
-2.856536932e-21
-1.798836766e-21
-1.124181604e-21
-6.966988629e-22
-4.280072318e-22
-2.609948319e-22
-1.564722165e-22
-9.293045282e-23
-5.503864148e-23
-3.243146564e-23
-1.895302316e-23
-1.091286212e-23
-6.126699998e-24
-3.315251916e-24
-1.693300024e-24
-7.80747133e-25
-2.856733851e-25
-3.191069874e-26
8.579396476e-26
1.294931111e-25
1.351219825e-25
1.229848223e-25
1.041544105e-25
8.434761196e-26
6.624871167e-26
5.088386911e-26
3.841998421e-26
2.86179347e-26
2.108100374e-26
1.53840347e-26
1.113472215e-26
7.997554001e-27
5.698137165e-27
4.02311793e-27
2.838774478e-27
1.797158555e-27
1.135640703e-27
7.158584928e-28
4.498409916e-28
2.815933975e-28
1.754540432e-28
1.087097251e-28
6.690306153e-29
4.084017578e-29
2.468398521e-29
1.473683461e-29
8.662568383e-30
4.990133733e-30
2.796897413e-30
1.772838499e-30
1.271749914e-30
9.044189789e-31
6.376630512e-31
4.463948144e-31
2.369348743e-31
1.038554575e-31
3.071821652e-32
-6.637984688e-33
-2.334990895e-32
-2.868812678e-32
-2.8179389e-32
-2.501568731e-32
-2.095767784e-32
-1.691539358e-32
-1.330199872e-32
-1.026128142e-32
-7.799413578e-33
-5.858812889e-33
-4.358948704e-33
-3.217102787e-33
-2.358129846e-33
-1.718197619e-33
-1.245526347e-33
-8.856619672e-34
-6.10485082e-34
-4.193993602e-34
-2.868842818e-34
-1.953547179e-34
-1.322312215e-34
-8.905265321e-35
-5.968745638e-35
-3.984658064e-35
-2.646472968e-35
-1.75810757e-35
-1.150706124e-35
-7.542810103e-36
-4.880393051e-36
-3.006825703e-36
-1.779623697e-36
-1.055240607e-36
-6.20706538e-37
-2.963312212e-37
-9.862562212e-38
-6.896658385e-38
-4.344650906e-38
-6.064659489e-38
-2.180164033e-38
1.552458235e-38
8.187701498e-39
3.826448222e-39
-2.717739392e-39
-3.113402226e-39
-2.257294135e-39
-1.721895029e-39
1.641615198e-39
5.081644067e-39
1.067910062e-38
7.718156925e-39
6.251875996e-39
6.203955765e-39
6.642587259e-39
7.278472712e-39
1.10252685e-38
1.329477793e-38
1.254551631e-38
8.882163621e-39
5.120591213e-39
2.856211248e-39
2.021848078e-39
9.413302163e-40
2.724428098e-40
-4.507713195e-40
-4.714178038e-40
2.551247919e-40
1.667923538e-40
1.99873578e-40
2.506210653e-40
8.669074788e-41
-4.614193795e-43
-4.87667432e-41
-6.069264882e-41
-9.53582186e-41
-8.7865725e-41
-6.437440493e-41
-4.296345058e-41
1.056739405e-41
1.185544438e-41
2.855238106e-41
1.304318744e-41
-6.52448614e-42
-2.137247781e-41
-1.703218089e-41
1.94262194e-41
1.832625236e-41
-2.691573284e-42
-2.326974096e-41
-4.077001013e-42
-1.263311622e-42
3.99907766e-42
1.24204643e-41
6.190365248e-42
5.313990937e-42
4.586802252e-42
1.567069907e-42
2.632281785e-43
-2.985947812e-43
-2.887634712e-43
-4.608962206e-43
-1.342954667e-43
7.203149774e-43
1.751168293e-43
4.510911381e-43
1.116176291e-42
9.801924343e-43
1.743277464e-43
6.241160968e-43
2.499271877e-43
1.019122795e-43
2.733727654e-43
8.600827236e-43
5.199705517e-43
3.615362928e-43
1.51248136e-43
2.17905385e-43
1.362767672e-43
-2.339949329e-44
-1.784854514e-43
-8.296022363e-44
-1.427047283e-43
-1.827351275e-43
-1.751427662e-43
-1.212482287e-43
-1.540674111e-43
-1.597592409e-43
-2.124227087e-43
-2.519837705e-43
-2.386945366e-43
-2.163171802e-43
-1.708169344e-43
-1.26929674e-43
-4.972464381e-44
-2.664360468e-44
-1.056565444e-44
2.287938524e-45
1.522535885e-44
1.428672418e-44
1.487232869e-44
1.957058179e-44
1.508614195e-44
1.685796625e-44
1.868923906e-44
1.784114008e-44
1.453900654e-44
7.077630486e-45
1.438357492e-45
2.386274018e-45
5.45036556e-45
6.749323196e-45
7.253770211e-45
2.507947675e-45
4.926059413e-46
-2.125325752e-45
-4.046868967e-46
7.886094619e-46
1.133133267e-45
1.73506694e-45
1.533735255e-45
1.453164777e-45
1.19963037e-45
4.636376127e-46
2.584818058e-46
7.613766696e-46
9.498637123e-46
7.33311839e-46
1.162482395e-46
-2.499414406e-46
-4.704581436e-46
-4.96306731e-46
-3.398723655e-46
-1.836859726e-46
7.370355559e-48
8.566803601e-47
8.277380739e-47
1.465220735e-47
2.378274414e-47
4.551085737e-47
5.473860393e-47
7.63507058e-47
5.423372712e-47
4.681240468e-47
1.561045927e-47
8.775996484e-48
7.305954865e-48
1.003278942e-47
2.127688118e-47
1.201807946e-47
7.837439622e-48
1.299591123e-47
9.611656137e-48
-2.23879313e-48
-6.633802366e-48
-1.260596614e-47
-1.328838063e-47
-7.674561006e-48
-1.806415712e-48
2.104026253e-48
7.237645775e-49
1.65510964e-48
1.700720145e-49
9.299687541e-49
1.412248773e-48
5.206698026e-49
9.293648914e-49
1.199434323e-48
1.285707541e-48
8.831108249e-49
-3.285670148e-49
-2.396587933e-49
-4.564083772e-49
1.533474411e-49
2.928394166e-49
2.676169782e-49
3.414620615e-49
3.0742403e-49
3.622760275e-49
4.136994698e-49
5.495655611e-49
5.919470207e-49
4.77102842e-49
3.068723814e-49
1.917246756e-49
1.894926488e-49
2.778851757e-49
3.13408294e-49
3.000971836e-49
3.285510949e-49
3.099424108e-49
3.11070615e-49
3.608455346e-49
3.538453412e-49
2.831535396e-49
2.573654893e-49
2.67032071e-49
2.414822312e-49
2.431243861e-49
2.121629619e-49
1.783417503e-49
1.475158006e-49
1.423160519e-49
1.835989931e-49
1.974521105e-49
1.792059793e-49
1.72697304e-49
1.660716834e-49
1.732733173e-49
1.462258896e-49
1.302750319e-49
1.012770007e-49
7.752479949e-50
4.392813908e-50
5.287658633e-50
6.058829334e-50
6.463581969e-50
7.038583595e-50
9.343848814e-50
9.797201002e-50
8.617630887e-50
7.716859678e-50
7.736877994e-50
6.454274098e-50
6.396222376e-50
8.102334521e-50
8.891793539e-50
7.964429744e-50
7.420911864e-50
7.887443132e-50
7.838746992e-50
5.014982078e-50
3.512066621e-50
1.943155162e-50
1.993926477e-50
2.893392569e-50
3.29449084e-50
3.741998111e-50
4.172650832e-50
4.949219198e-50
4.284183257e-50
3.53395333e-50
3.477073595e-50
3.322577243e-50
3.474083801e-50
3.445255164e-50
3.514186203e-50
2.843368647e-50
2.675555046e-50
2.067982332e-50
1.875189175e-50
1.631878207e-50
1.173902665e-50
3.335090969e-51
1.676336453e-52
2.06182622e-51
5.09274322e-51
8.524078998e-51
6.836611501e-51
5.825770915e-51
9.00177149e-51
1.141044905e-50
5.890745345e-51
2.641168526e-51
2.644835938e-51
7.128896161e-51
6.915758284e-51
1.021864761e-50
1.056017062e-50
1.320049121e-50
9.245894253e-51
7.312818705e-51
5.632827277e-51
4.603227655e-51
4.838616522e-51
2.923736598e-51
3.889126341e-51
4.717769339e-51
5.305038916e-51
5.027685287e-51
1.551204679e-51
2.630405064e-51
5.029600335e-51
3.698807632e-51
1.891800645e-51
2.559303324e-51
2.510234664e-51
2.661380975e-51
2.729685617e-51
2.205280114e-51
1.742159611e-51
3.341847527e-51
3.468550551e-51
2.13592537e-51
3.671138226e-51
3.320335113e-51
3.846252801e-51
4.393807663e-51
4.326616661e-51
3.307291149e-51
2.377366368e-51
2.277123685e-51
1.976713053e-51
2.322677011e-51
2.308039831e-51
3.852515781e-51
3.858594398e-51
2.567233297e-51
1.369665979e-51
3.688326492e-52
2.907473606e-52
6.23129252e-52
-2.252605856e-52
2.19342683e-52
-1.382684863e-52
5.089388761e-53
2.171555822e-52
-3.22414712e-53
7.767807888e-53
5.291564294e-53
-2.323348896e-53
1.468731046e-53
1.118942082e-53
2.471012964e-54
8.616071925e-55
-1.777215424e-54
7.282911416e-55
1.714992236e-54
2.116147533e-55
-1.540742629e-55
1.288085567e-55
9.247742361e-57
-7.102436323e-57
-6.93170865e-57
-5.68327996e-57
-1.1726228e-57
-5.200657005e-58
3.813438102e-58
5.041663618e-58
1.603239775e-58
-1.642932518e-58
8.485100013e-59
-7.636247543e-60
-8.873298787e-61
-3.523145263e-60
3.886901687e-59
5.523065303e-59
1.343586405e-60
8.907267068e-61
-4.441288572e-60
7.311704429e-61
2.007986247e-60
-2.815191204e-61
-1.284826248e-59
-2.037944889e-61
2.950583405e-60
8.590353146e-62
-2.978545575e-60
1.147187163e-60
-4.491418211e-61
9.147375932e-61
3.077014754e-61
-3.316594834e-63
-1.452667621e-61
1.307164574e-61
-2.798445253e-62
-2.477658692e-62
-4.665213137e-63
1.206616744e-62
1.064001825e-62
-5.172375411e-63
1.867872247e-63
-2.553310104e-63
-2.481487854e-65
1.879147355e-64
1.21045063e-64
1.711056555e-66
-1.965884326e-65
-8.442252274e-65
-3.981221894e-66
-6.045200581e-65
-4.063753883e-66
-1.105076875e-65
1.515998047e-65
-9.661120208e-66
1.985676135e-67
4.153380941e-66
3.469780028e-66
-5.796399336e-67
-9.015616463e-67
-4.870577434e-67
7.663155692e-67
5.502145197e-67
-2.650090208e-67
-1.032472042e-67
2.227051322e-69
5.247901566e-68
7.525691564e-69
1.074969773e-68
-2.072866987e-69
-2.568148255e-69
-3.018645534e-70
-2.246887728e-70
4.098924699e-71
1.129337067e-70
6.061829189e-72
3.655396877e-71
-9.684900476e-72
-4.491960986e-73
-1.601506499e-72
2.883274323e-74
4.480139619e-72
2.58819281e-72
-1.748681995e-72
-2.554076e-73
-4.408132116e-75
-6.064767158e-74
-3.785452799e-73
1.239293674e-73
4.990648542e-73
6.946204922e-75
-9.486959615e-74
-4.188255042e-74
3.406837684e-73
-3.432755419e-74
8.151719405e-76
1.862850131e-73
-2.739015552e-74
6.5866482e-74
5.836934697e-74
-3.049014888e-74
1.300205132e-74
2.084722793e-74
1.433376746e-74
-2.39497223e-73
-1.463092129e-73
-3.462284764e-74
7.965133731e-74
1.571587985e-74
-1.430998824e-73
8.211397686e-75
-3.561779112e-73
-3.363135672e-73
-1.479610758e-73
1.15566004e-73
-3.549537013e-73
9.602018527e-75
-4.222730912e-73
-8.02405096e-74
-3.599490518e-73
-2.129126918e-73
-1.654844291e-75
7.907417472e-75
-5.73652032e-73
-3.346536706e-73
-6.928488553e-74
-2.713997504e-73
-3.732382609e-73
8.514981227e-75
-7.811103985e-73
-1.482563736e-73
-2.569697208e-73
-1.502602711e-74
2.949076891e-74
-3.500202551e-73
2.050062964e-73
-9.135589662e-74
7.197652273e-76
6.261373208e-73
-1.588524328e-74
-5.153968948e-74
-5.763603615e-74
3.916568155e-74
7.637087115e-76
6.040517194e-73
6.774298781e-75
7.268636618e-73
7.074174192e-75
-3.398080211e-73
-2.094807542e-73
1.35292236e-73
4.814356147e-73
2.05250231e-74
-1.636145895e-73
-1.203068115e-73
-4.826042348e-74
1.671727753e-73
-5.420786148e-73
9.365404893e-76
-1.101476139e-73
-1.542700645e-75
1.813292767e-76
-5.149995044e-73
-4.649521823e-75
1.071852274e-76
-1.795000608e-73
3.745950365e-76
4.310244729e-73
-4.857903986e-73
-3.239058736e-73
-5.445198574e-74
-8.214188085e-74
-5.363163164e-76
-1.460853274e-76
-2.975834585e-74
6.761950319e-76
9.330329033e-75
5.907948953e-74
3.37601865e-75
1.200392563e-74
7.437392946e-74
-5.03513577e-74
-5.188403042e-73
-1.34894694e-73
-3.189666973e-74
4.276851781e-74
3.206255781e-75
-5.943176912e-74
6.311702975e-74
2.700175141e-74
-2.889056337e-74
-5.446027199e-74
-1.496520062e-73
3.577935291e-76
6.883868399e-76
9.727730892e-78
1.830429631e-74
9.852617136e-77
-6.742558081e-75
-5.552458165e-76
-2.952007988e-75
7.443454414e-75
-1.377905078e-75
-2.867376966e-77
-6.36930178e-75
3.804716363e-75
4.934973201e-75
-2.18368014e-76
-2.975797622e-74
1.993456049e-73
-9.342205021e-74
-1.412872552e-75
1.458205487e-74
-1.225469601e-73
-5.368723892e-74
-2.620931302e-73
9.413534863e-74
8.248980969e-74
7.660986049e-76
-2.547390956e-75
1.154723961e-77
4.205470455e-74
6.075378903e-73
-2.752106699e-73
3.254348379e-73
4.060234495e-74
-2.873943176e-75
3.373908012e-75
-8.187470022e-74
-3.201891727e-76
)
;

boundaryField
{
    inlet
    {
        type            calculated;
        value           uniform 0;
    }
    outlet
    {
        type            calculated;
        value           uniform -3.201891737e-76;
    }
    wall
    {
        type            empty;
    }
}


// ************************************************************************* //
