/*--------------------------------*- C++ -*----------------------------------*\
  =========                 |
  \\      /  F ield         | OpenFOAM: The Open Source CFD Toolbox
   \\    /   O peration     | Website:  https://openfoam.org
    \\  /    A nd           | Version:  7
     \\/     M anipulation  |
\*---------------------------------------------------------------------------*/
FoamFile
{
    version     2.0;
    format      ascii;
    class       volScalarField;
    location    "0.000558243009";
    object      ddt0(rho,C4H7);
}
// * * * * * * * * * * * * * * * * * * * * * * * * * * * * * * * * * * * * * //

dimensions      [1 -3 -1 0 0 0 0];

internalField   nonuniform List<scalar> 
1500
(
-7.959417909e-29
-1.862827046e-28
-1.81984433e-28
-1.089060866e-28
-4.842831868e-29
-1.740603392e-29
-4.809696282e-30
-5.289172376e-31
5.289366608e-31
4.737109651e-31
9.391261693e-32
-3.576916867e-31
-8.126922181e-31
-1.255166958e-30
-1.673919689e-30
-2.054997881e-30
-2.383384891e-30
-2.64646376e-30
-2.836007214e-30
-2.948410385e-30
-2.983924624e-30
-2.945535104e-30
-2.837929366e-30
-2.666775509e-30
-2.438342101e-30
-2.159374197e-30
-1.837092113e-30
-1.479192492e-30
-1.09378096e-30
-6.892193445e-31
-2.739088461e-31
1.439488356e-31
5.565660294e-31
9.567282426e-31
1.337884197e-30
1.694173119e-30
2.020411415e-30
2.312058871e-30
2.56518178e-30
2.776427758e-30
2.943020061e-30
3.062772996e-30
3.134122712e-30
3.156164233e-30
3.128686487e-30
3.052198117e-30
2.927939671e-30
2.757880524e-30
2.544699841e-30
2.291751604e-30
2.003014536e-30
1.683027861e-30
1.336814176e-30
9.69790566e-31
5.876696041e-31
1.963522324e-31
-1.981844725e-31
-5.900017641e-31
-9.733122092e-31
-1.342588339e-30
-1.692664172e-30
-2.018826054e-30
-2.31689013e-30
-2.583264572e-30
-2.814995004e-30
-3.009792175e-30
-3.166042013e-30
-3.282798969e-30
-3.359763313e-30
-3.397243702e-30
-3.396107035e-30
-3.357718254e-30
-3.283872743e-30
-3.176724103e-30
-3.038709871e-30
-2.872477731e-30
-2.680815065e-30
-2.46658424e-30
-2.232665157e-30
-1.98190655e-30
-1.717086811e-30
-1.440884924e-30
-1.155861178e-30
-8.644468974e-31
-5.689423699e-31
-2.715211828e-31
2.576059792e-32
3.209514669e-31
6.121895119e-31
8.976873213e-31
1.175718373e-30
1.444606129e-30
1.702716876e-30
1.94845684e-30
2.180273913e-30
2.396663841e-30
2.596180383e-30
2.777448707e-30
2.939181224e-30
3.080194939e-30
3.199429217e-30
3.295963045e-30
3.369030856e-30
3.418036177e-30
3.44256261e-30
3.44238179e-30
3.417458226e-30
3.367951193e-30
3.294213835e-30
3.196789869e-30
3.076408232e-30
2.933975952e-30
2.770569628e-30
2.587425563e-30
2.385928852e-30
2.167601359e-30
1.934088716e-30
1.687146278e-30
1.428624031e-30
1.160450452e-30
8.846153564e-31
6.031519186e-31
3.181178539e-31
3.157616048e-32
-2.544244809e-31
-5.378692833e-31
-8.167966987e-31
-1.089317238e-30
-1.353631571e-30
-1.608047633e-30
-1.850996612e-30
-2.081047659e-30
-2.296921154e-30
-2.497500342e-30
-2.681841297e-30
-2.849180967e-30
-2.998943092e-30
-3.130741838e-30
-3.244382833e-30
-3.339861433e-30
-3.417357898e-30
-3.477229352e-30
-3.519998435e-30
-3.546338496e-30
-3.557055633e-30
-3.553067682e-30
-3.535380694e-30
-3.50506342e-30
-3.463220605e-30
-3.410965972e-30
-3.349395786e-30
-3.279564063e-30
-3.202460419e-30
-3.118991321e-30
-3.029965658e-30
-2.936084941e-30
-2.837938666e-30
-2.736004582e-30
-2.630653811e-30
-2.522160043e-30
-2.410712164e-30
-2.296429141e-30
-2.179376192e-30
-2.059580928e-30
-1.937048465e-30
-1.81177442e-30
-1.683755124e-30
-1.55299462e-30
-1.419508257e-30
-1.28332322e-30
-1.144476589e-30
-1.003011799e-30
-8.589747265e-31
-7.124104542e-31
-5.633619777e-31
-4.118718971e-31
-2.579875599e-31
-1.01770007e-31
5.669366739e-32
2.172753615e-31
3.797898239e-31
5.439789744e-31
7.094986103e-31
8.759094051e-31
1.042673744e-30
1.209159516e-30
1.374651435e-30
1.538369193e-30
1.699491646e-30
1.85718494e-30
2.010632377e-30
2.159063488e-30
2.301779891e-30
2.438175939e-30
2.567753056e-30
2.690127139e-30
2.805029498e-30
2.912302477e-30
3.011891178e-30
3.10383278e-30
3.188244957e-30
3.265313712e-30
3.335280723e-30
3.398429296e-30
3.455067371e-30
3.505506466e-30
3.550035283e-30
3.588888533e-30
3.622212672e-30
3.650032403e-30
3.672223638e-30
3.688499857e-30
3.698418988e-30
3.701417318e-30
3.696873871e-30
3.684204603e-30
3.662980428e-30
3.633056859e-30
3.594696713e-30
3.548663168e-30
3.496257736e-30
3.439279212e-30
3.37988487e-30
3.320345236e-30
3.26269755e-30
3.208319802e-30
3.157465155e-30
3.108813538e-30
3.059110211e-30
3.002968669e-30
2.93291392e-30
2.839732019e-30
2.713169093e-30
2.542991146e-30
2.320372363e-30
2.039528613e-30
1.699459271e-30
1.305607107e-30
8.712068861e-31
4.180674204e-31
-2.345855753e-32
-4.15548566e-31
-7.151992923e-31
-8.779667551e-31
-8.633269409e-31
-6.424113632e-31
-2.074817675e-31
4.166271679e-31
1.179028865e-30
2.048093492e-30
2.592328523e-30
2.730892778e-30
2.777070405e-30
2.811088656e-30
2.84727619e-30
2.886676143e-30
2.92746394e-30
2.967849673e-30
3.006700444e-30
3.043511904e-30
3.078141143e-30
3.110575306e-30
3.140819296e-30
3.168827535e-30
3.194513523e-30
3.217762365e-30
3.238431665e-30
3.256370889e-30
3.271423506e-30
3.28343268e-30
3.292234875e-30
3.297655907e-30
3.29952462e-30
3.297656969e-30
3.291869846e-30
3.281953632e-30
3.267708039e-30
3.248911536e-30
3.225343761e-30
3.196758004e-30
3.162911412e-30
3.123537048e-30
3.078362253e-30
3.027100166e-30
2.969440684e-30
2.905068742e-30
2.833649353e-30
2.754824118e-30
2.66822286e-30
2.573454186e-30
2.470102242e-30
2.357729695e-30
2.235873765e-30
2.104052169e-30
1.961746909e-30
1.808413382e-30
1.643481673e-30
1.466342249e-30
1.276349854e-30
1.072829259e-30
8.550574947e-31
6.222751474e-31
3.736713836e-31
1.083960566e-31
-1.744574168e-31
-4.75848963e-31
-7.967968151e-31
-1.138379614e-30
-1.501738496e-30
-1.888084185e-30
-2.298706333e-30
-2.734962725e-30
-3.198303076e-30
-3.690255972e-30
-4.212450341e-30
-4.766603523e-30
-5.354546325e-30
-5.978216222e-30
-6.639662506e-30
-7.34106695e-30
-8.084732702e-30
-8.873104257e-30
-9.708766935e-30
-1.059446961e-29
-1.153310824e-29
-1.252776427e-29
-1.358168393e-29
-1.469831215e-29
-1.588128633e-29
-1.713445806e-29
-1.846189417e-29
-1.986789211e-29
-2.135699718e-29
-2.293399213e-29
-2.460394567e-29
-2.637218659e-29
-2.824434773e-29
-3.022635763e-29
-3.23244597e-29
-3.454523674e-29
-3.689561212e-29
-3.938286743e-29
-4.201466265e-29
-4.479904356e-29
-4.774446148e-29
-5.085979153e-29
-5.415433656e-29
-5.763785821e-29
-6.132058181e-29
-6.521321823e-29
-6.932697842e-29
-7.367358313e-29
-7.826529703e-29
-8.311491751e-29
-8.823581936e-29
-9.364195225e-29
-9.934785372e-29
-1.053686817e-28
-1.117202163e-28
-1.184188752e-28
-1.254817325e-28
-1.329265297e-28
-1.407716837e-28
-1.490363108e-28
-1.577402262e-28
-1.66903964e-28
-1.765487744e-28
-1.866966581e-28
-1.973703376e-28
-2.085932954e-28
-2.203897626e-28
-2.327847317e-28
-2.458039541e-28
-2.594739421e-28
-2.738219776e-28
-2.888760897e-28
-3.046650817e-28
-3.212184956e-28
-3.385666321e-28
-3.567405205e-28
-3.757719206e-28
-3.956933103e-28
-4.165378652e-28
-4.38339454e-28
-4.611326014e-28
-4.849524791e-28
-5.098348934e-28
-5.358162384e-28
-5.629334843e-28
-5.912241519e-28
-6.207262588e-28
-6.514783111e-28
-6.835192519e-28
-7.168884398e-28
-7.516255831e-28
-7.877707286e-28
-8.253641861e-28
-8.644465115e-28
-9.050584457e-28
-9.472408579e-28
-9.910347098e-28
-1.036480986e-27
-1.083620664e-27
-1.132494627e-27
-1.183143637e-27
-1.235608254e-27
-1.289928789e-27
-1.346145251e-27
-1.404297263e-27
-1.464424029e-27
-1.526564258e-27
-1.590756101e-27
-1.657037112e-27
-1.725444149e-27
-1.796013356e-27
-1.868780095e-27
-1.943778857e-27
-2.021043255e-27
-2.100605934e-27
-2.182498541e-27
-2.266751673e-27
-2.353394807e-27
-2.4424563e-27
-2.533963315e-27
-2.627941793e-27
-2.724416424e-27
-2.823410631e-27
-2.924946516e-27
-3.02904487e-27
-3.13572516e-27
-3.245005493e-27
-3.356902646e-27
-3.471432065e-27
-3.588607867e-27
-3.708442853e-27
-3.830948575e-27
-3.956135316e-27
-4.084012183e-27
-4.21458712e-27
-4.347866998e-27
-4.483857679e-27
-4.62256408e-27
-4.763990292e-27
-4.908139653e-27
-5.055014894e-27
-5.204618247e-27
-5.356951574e-27
-5.512016534e-27
-5.669814749e-27
-5.830347969e-27
-5.993618261e-27
-6.159628244e-27
-6.328381258e-27
-6.499881697e-27
-6.674135128e-27
-6.851148684e-27
-7.030931313e-27
-7.213494051e-27
-7.398850392e-27
-7.587016648e-27
-7.778012234e-27
-7.971860202e-27
-8.168587474e-27
-8.368225452e-27
-8.570810345e-27
-8.776383711e-27
-8.984993022e-27
-9.196692093e-27
-9.411541725e-27
-9.629610272e-27
-9.850974313e-27
-1.007571929e-26
-1.030394018e-26
-1.053574228e-26
-1.077124195e-26
-1.101056745e-26
-1.125385977e-26
-1.150127355e-26
-1.175297805e-26
-1.200915806e-26
-1.227001507e-26
-1.253576834e-26
-1.280665598e-26
-1.308293632e-26
-1.336488904e-26
-1.36528167e-26
-1.394704604e-26
-1.424792958e-26
-1.455584721e-26
-1.487120784e-26
-1.519445119e-26
-1.552604973e-26
-1.586651066e-26
-1.621637797e-26
-1.657623479e-26
-1.694670577e-26
-1.732845958e-26
-1.772221166e-26
-1.812872741e-26
-1.854882498e-26
-1.898337908e-26
-1.943332468e-26
-1.989966131e-26
-2.03834588e-26
-2.08858659e-26
-2.140812425e-26
-2.195159131e-26
-2.251777369e-26
-2.310836067e-26
-2.372522684e-26
-2.437033618e-26
-2.50455494e-26
-2.575402143e-26
-2.650780267e-26
-2.729743238e-26
-2.812677237e-26
-2.900781185e-26
-2.992402458e-26
-3.088040616e-26
-3.188034859e-26
-3.292554163e-26
-3.401795636e-26
-3.515998554e-26
-3.63547749e-26
-3.760682023e-26
-3.892152803e-26
-4.030184765e-26
-4.175106896e-26
-4.33068624e-26
-4.494432391e-26
-4.66735459e-26
-4.850561126e-26
-5.045970887e-26
-5.253967853e-26
-5.474422269e-26
-5.708113946e-26
-5.955983708e-26
-6.218994096e-26
-6.498160601e-26
-6.794577692e-26
-7.109431256e-26
-7.444005735e-26
-7.799690723e-26
-8.177988971e-26
-8.580525827e-26
-9.009060708e-26
-9.465500296e-26
-9.951913391e-26
-1.047054788e-25
-1.102384983e-25
-1.161448488e-25
-1.224536269e-25
-1.291966441e-25
-1.364087415e-25
-1.441281446e-25
-1.523968719e-25
-1.612611988e-25
-1.707721899e-25
-1.80986311e-25
-1.919661301e-25
-2.037811267e-25
-2.165086246e-25
-2.3023487e-25
-2.450562802e-25
-2.610808927e-25
-2.78430048e-25
-2.972403519e-25
-3.176659635e-25
-3.398812728e-25
-3.640840445e-25
-3.904991088e-25
-4.193827304e-25
-4.510277803e-25
-4.857699091e-25
-5.23994951e-25
-5.66147897e-25
-6.127438705e-25
-6.643817486e-25
-7.217613502e-25
-7.85705572e-25
-8.571895769e-25
-9.373803309e-25
-1.027691699e-24
-1.129863486e-24
-1.246078059e-24
-1.379136859e-24
-1.532733673e-24
-1.711885699e-24
-1.923624069e-24
-2.178113436e-24
-2.490484308e-24
-2.88385353e-24
-3.394330221e-24
-4.0793461e-24
-5.031560003e-24
-6.402118651e-24
-8.439635121e-24
-1.155558591e-23
-1.643413316e-23
-2.421667265e-23
-3.681210245e-23
-5.741863251e-23
-9.140156655e-23
-1.477701105e-22
-2.416622093e-22
-3.985255955e-22
-6.611528849e-22
-1.101518512e-21
-1.840693866e-21
-3.082351141e-21
-5.169122985e-21
-8.677400781e-21
-1.45767714e-20
-2.449813827e-20
-4.118456577e-20
-6.924928974e-20
-1.164500289e-19
-1.958310229e-19
-3.293232487e-19
-5.537947365e-19
-9.312171091e-19
-1.565746481e-18
-2.632417183e-18
-4.425336297e-18
-7.43861901e-18
-1.250228389e-17
-2.101038755e-17
-3.530393387e-17
-5.931343665e-17
-9.963699577e-17
-1.673487155e-16
-2.810316685e-16
-4.718637109e-16
-7.921443111e-16
-1.329588737e-15
-2.231288246e-15
-3.743870295e-15
-6.280810827e-15
-1.053525918e-14
-1.766916274e-14
-2.963032974e-14
-4.968407035e-14
-8.330483964e-14
-1.396720828e-13
-2.341805577e-13
-3.926546917e-13
-6.584261349e-13
-1.10422406e-12
-1.852160551e-12
-3.107340064e-12
-5.214408419e-12
-8.752747409e-12
-1.469681824e-11
-2.468641282e-11
-4.148247058e-11
-6.973647092e-11
-1.172902211e-10
-1.973737355e-10
-3.323253982e-10
-5.598967363e-10
-9.439521501e-10
-1.592659852e-09
-2.689486424e-09
-4.546138559e-09
-7.69323134e-09
-1.303588742e-08
-2.212103222e-08
-3.759600327e-08
-6.399231641e-08
-1.090555251e-07
-1.859788194e-07
-3.171080896e-07
-5.400060358e-07
-9.172520422e-07
-1.552115699e-06
-2.613448398e-06
-4.375048877e-06
-7.277679836e-06
-1.202600598e-05
-1.973741463e-05
-3.21624873e-05
-5.199109177e-05
-8.322874067e-05
-0.0001315456959
-0.0002043128248
-0.0003096538287
-0.0004531185872
-0.0006292965371
-0.0008035495912
-0.0008755950476
-0.0006116924926
0.0004746052214
0.003320796527
0.009628908297
0.02234041123
0.0463686371
0.08981434897
0.1679515088
0.3027363563
0.557535523
0.9577953166
1.529783459
2.079749574
3.400049224
5.185777715
7.60676585
10.79817766
14.88200773
19.96658566
26.24198014
34.06311919
43.73658024
54.34926842
68.9806751
76.22670055
95.43131287
118.4412641
146.607869
177.1531417
209.8683708
234.9852242
242.8165923
234.9882175
198.6928153
150.3760064
100.7702417
58.22594229
26.4089258
4.076025951
-8.462511797
-16.68357456
-20.41173215
-21.59641393
-21.08861124
-19.61035966
-17.65683079
-15.55135233
-13.36253657
-11.03734304
-9.011778076
-7.278844716
-5.81011124
-4.601590889
-3.652875032
-2.914069437
-2.337466944
-1.88047503
-1.454925308
-1.121142484
-0.879599759
-0.684141971
-0.5285902942
-0.4064399511
-0.3114420663
-0.2380626282
-0.1814377444
-0.1381619155
-0.1050411667
-0.07974283917
-0.06045293523
-0.04576778389
-0.03460494376
-0.02613180677
-0.0197092667
-0.01484765487
-0.01117247006
-0.008397705885
-0.006305342263
-0.00472943813
-0.003543882789
-0.002652978279
-0.001984210361
-0.001482709289
-0.001107012782
-0.0008258308509
-0.0006155798396
-0.0004585059338
-0.00034125953
-0.0002538138863
-0.0001886460895
-0.0001401176167
-0.0001040064987
-7.715444577e-05
-5.720102394e-05
-4.238364904e-05
-3.138727668e-05
-2.323156577e-05
-1.718626322e-05
-1.270781653e-05
-9.391935253e-06
-6.938121846e-06
-5.123176004e-06
-3.781419384e-06
-2.789948543e-06
-2.057646444e-06
-1.51700094e-06
-1.118017742e-06
-8.236949523e-07
-6.066608882e-07
-4.466778329e-07
-3.287898925e-07
-2.419496104e-07
-1.780001964e-07
-1.30921723e-07
-9.627313808e-08
-7.077944491e-08
-5.20264415e-08
-3.823510483e-08
-2.809491981e-08
-2.064080901e-08
-1.516229695e-08
-1.11364942e-08
-8.178674908e-09
-6.005842945e-09
-4.409883006e-09
-3.237781993e-09
-2.377063635e-09
-1.745065648e-09
-1.281048066e-09
-9.403868719e-10
-6.903030411e-10
-5.067217724e-10
-3.719633689e-10
-2.73045932e-10
-2.004380177e-10
-1.471421412e-10
-1.080214925e-10
-7.930539984e-11
-5.822613885e-11
-4.275223682e-11
-3.139265816e-11
-2.305304669e-11
-1.693019522e-11
-1.243458299e-11
-9.133519509e-12
-6.709415047e-12
-4.929154677e-12
-3.621621903e-12
-2.66120353e-12
-1.955684185e-12
-1.437362241e-12
-1.056529804e-12
-7.766875849e-13
-5.710328493e-13
-4.198817038e-13
-3.0877701e-13
-2.27099495e-13
-1.670481648e-13
-1.228917727e-13
-9.041923743e-14
-6.65361027e-14
-4.89682012e-14
-3.604402487e-14
-2.653488103e-14
-1.953747932e-14
-1.43876771e-14
-1.059710815e-14
-7.80661839e-15
-5.752047767e-15
-4.239081734e-15
-3.124766448e-15
-2.303920415e-15
-1.699144388e-15
-1.253475865e-15
-9.249875428e-16
-6.828146669e-16
-5.042330822e-16
-3.725097784e-16
-2.753215296e-16
-2.03591348e-16
-1.506322541e-16
-1.115171318e-16
-8.261489971e-17
-6.124907709e-17
-4.544639727e-17
-3.37517135e-17
-2.509168785e-17
-1.867439159e-17
-1.391535263e-17
-1.038306324e-17
-7.758832331e-18
-5.807195743e-18
-4.35410425e-18
-3.270842286e-18
-2.462166999e-18
-1.85756083e-18
-1.404779306e-18
-1.065087153e-18
-8.097394875e-19
-6.173887252e-19
-4.72162427e-19
-3.622484813e-19
-2.78843022e-19
-2.153780699e-19
-1.66944537e-19
-1.298682967e-19
-1.013954879e-19
-7.945620928e-20
-6.249343352e-20
-4.933187968e-20
-3.908289954e-20
-3.107285846e-20
-2.479006229e-20
-1.984396322e-20
-1.593589424e-20
-1.283703641e-20
-1.037152833e-20
-8.402848935e-21
-6.825914607e-21
-5.5587654e-21
-4.537383325e-21
-3.711833445e-21
-3.042823218e-21
-2.499142854e-21
-2.056147115e-21
-1.694617847e-21
-1.398877843e-21
-1.156377465e-21
-9.573435933e-22
-7.936081806e-22
-6.5868198e-22
-5.473126434e-22
-4.552290753e-22
-3.791106073e-22
-3.159500617e-22
-2.635117319e-22
-2.200365547e-22
-1.838521191e-22
-1.538528833e-22
-1.288633519e-22
-1.08091664e-22
-9.075626182e-23
-7.629233848e-23
-6.418633898e-23
-5.398642682e-23
-4.543087944e-23
-3.831554467e-23
-3.23449957e-23
-2.734058093e-23
-2.31516507e-23
-1.957094914e-23
-1.662709306e-23
-1.41159749e-23
-1.200214223e-23
-1.021079941e-23
-8.701959609e-24
-7.451312046e-24
-6.382949844e-24
-5.516393023e-24
-4.752024461e-24
-4.088817559e-24
-3.542075505e-24
-3.098124207e-24
-2.74596412e-24
-2.40925457e-24
-2.120032006e-24
-1.796787847e-24
-1.559723097e-24
-1.394585049e-24
-1.209781666e-24
-1.031791274e-24
-8.963056728e-25
-7.698108624e-25
-6.913161523e-25
-6.230657085e-25
-5.673756852e-25
-5.349963045e-25
-5.357549832e-25
-5.326518773e-25
-5.28334089e-25
-4.922329319e-25
-4.685692595e-25
-4.090275066e-25
-3.486887643e-25
-3.074863906e-25
-2.823800094e-25
-2.737707161e-25
-2.545875942e-25
-2.282590879e-25
-2.031208612e-25
-1.518363788e-25
-1.489790888e-25
-1.866816955e-25
-1.878801277e-25
-1.747033021e-25
-1.718333861e-25
-2.285432061e-25
-2.203483102e-25
-1.796278597e-25
-1.72107039e-25
-1.463888599e-25
-1.276649269e-25
-8.0427624e-26
-3.89288438e-26
-6.112924764e-27
-3.006367923e-26
-4.984124558e-26
-6.762613634e-26
-9.186922146e-26
-1.291685247e-25
-1.286108526e-25
-1.061629108e-25
-9.098441278e-26
-7.136410765e-26
-7.168334838e-26
-6.415503424e-26
-4.896565777e-26
-3.065139416e-26
-1.847097713e-26
-9.789254943e-27
-8.237308402e-27
-1.341059908e-26
-3.559005967e-27
-1.342550822e-26
-6.6012334e-27
-6.835738625e-27
-3.660834601e-26
-7.671899352e-26
-7.363927811e-26
-6.914270684e-26
-5.376136905e-26
-4.961809092e-26
-4.115170011e-26
-2.312674821e-26
-2.930688773e-26
-1.568459377e-26
-1.353234837e-26
-2.113370995e-26
-2.253217292e-26
-2.580784391e-26
-1.260958298e-26
-4.933533389e-27
-1.839499064e-26
-3.301487382e-26
-3.382622802e-26
-4.940558524e-26
-2.947952853e-26
-1.20041656e-26
-7.659104466e-28
-9.289212989e-27
-9.093718389e-27
-3.775825406e-27
-3.162997408e-26
-2.461129189e-26
-2.390238289e-26
-3.085529285e-26
-2.777999125e-26
-1.076792645e-26
-1.562333549e-27
2.607346601e-27
-2.582870831e-27
-1.351842595e-26
-3.645499347e-26
-3.487806323e-26
-2.286355333e-26
-2.922058951e-26
-2.804887692e-26
-1.91696895e-26
-1.815600518e-26
-8.132750994e-27
-1.064454885e-26
-2.58067291e-26
-1.917914737e-26
-7.282172163e-27
-9.740182759e-27
3.57561384e-27
1.885797767e-27
-4.316454834e-27
-1.042645158e-26
-1.168190848e-26
-1.430998096e-26
1.060566721e-26
1.286878195e-26
6.133353656e-27
-2.323427664e-27
-1.147834175e-26
-1.376946795e-26
2.296096904e-27
1.041850288e-26
2.288512539e-26
2.289204384e-26
2.131528764e-26
1.217792276e-26
1.273445603e-27
-1.298151275e-26
-2.990643015e-26
-4.320166453e-26
-4.33601755e-26
-4.188442804e-26
-3.641332225e-26
-2.242593813e-26
-2.003848348e-26
-1.63700477e-26
-1.412378658e-26
-1.290769476e-26
-1.717497668e-26
-1.113393554e-26
-1.642421708e-26
8.700868279e-27
2.249517136e-26
2.492688939e-26
2.307377051e-26
1.790194585e-26
1.585779915e-26
1.288568036e-26
2.134396332e-26
2.129750683e-26
1.579198368e-26
1.319428482e-26
-4.856117325e-28
-1.238589335e-26
-4.749871254e-27
-4.668160643e-27
1.273190716e-27
2.163346725e-28
-3.580937556e-27
-1.792144186e-27
-3.196029081e-27
-7.853963277e-27
-1.21457044e-26
-1.499638129e-26
-1.598575525e-26
-2.613367182e-26
-2.133781959e-26
-7.308252197e-27
-3.16510765e-27
3.190966608e-27
-4.897584201e-28
-5.557341541e-27
-7.426141768e-27
-6.907114288e-27
-4.076667382e-27
-7.212690138e-28
-2.062604812e-27
-3.092382538e-27
-1.162018712e-26
-1.428835728e-26
-1.770727739e-26
-1.607690018e-26
-2.126967763e-26
-1.789879962e-26
-3.457648464e-27
-1.381629908e-27
-4.21626915e-27
-8.668746412e-27
-8.143746624e-27
-5.37999021e-27
2.810859901e-27
8.960364013e-28
-4.379035083e-27
-8.93462255e-27
-1.429524405e-26
-1.391340593e-26
-5.990393645e-27
5.457194606e-27
8.375437493e-27
7.865465145e-27
7.105411039e-27
1.019879787e-26
8.131109805e-27
2.141727174e-27
-6.165585539e-27
-7.771340137e-27
-1.060449739e-26
-9.003542728e-27
-6.985318421e-27
-9.476445812e-27
-1.463239254e-26
-1.94143955e-26
-1.262208832e-26
-6.263186946e-27
2.402129422e-27
3.876350668e-27
5.288422416e-27
1.311269255e-27
6.015831986e-27
9.562758632e-27
1.370143046e-26
1.03021078e-26
8.705684615e-27
1.136203278e-26
1.045400939e-26
4.8010299e-27
-3.435177628e-27
-7.520047569e-27
-1.418493207e-26
-1.402160142e-26
-1.426333622e-26
-1.437882014e-26
-1.235981903e-26
-7.429420819e-27
-5.29058811e-27
1.680612977e-27
3.621139398e-27
3.870534469e-27
3.257395996e-27
4.906972352e-28
3.250206021e-27
1.69839522e-27
-3.35338489e-27
-5.179744926e-27
-4.745221058e-27
-8.932808212e-27
-1.255239582e-26
-1.249885519e-26
-1.045531069e-26
-1.074552256e-26
-9.654529585e-27
-6.912858372e-27
-3.637974498e-27
-3.002410457e-27
-3.18025684e-27
-4.558052359e-27
-6.403832118e-27
-8.461326334e-27
-7.751171665e-27
-3.407270353e-27
-6.401573416e-28
3.50209618e-27
7.005642944e-27
5.802992307e-27
3.33677627e-28
-4.296364723e-27
-1.69695023e-27
-5.983661353e-27
-5.49244369e-27
-6.995417453e-27
-5.335275752e-27
-2.608824109e-27
-1.182468043e-27
-1.453542863e-27
-2.196440968e-27
-3.521471719e-27
-5.335840749e-27
-7.698869796e-27
-7.79365658e-27
-5.266441003e-27
-1.161465657e-27
2.678364438e-27
4.688141568e-27
2.977276637e-27
1.592763663e-27
-7.943241222e-29
-2.04277048e-27
-1.868092431e-28
2.385277e-27
-1.531355819e-28
-3.177866623e-28
-1.397637771e-28
2.241870973e-28
-2.568038382e-26
-7.236366708e-28
2.828500625e-28
-5.454147264e-28
-1.718075558e-28
-3.682862509e-27
-1.232358936e-27
1.064289517e-26
1.264780468e-27
1.806847865e-28
6.687911588e-27
-6.017747651e-27
-1.671266793e-27
-2.4821532e-27
-3.506994871e-28
6.960038595e-28
-1.779449944e-27
6.155146911e-29
1.508466282e-27
2.930426252e-27
-1.261554799e-27
2.983878369e-28
-1.273867326e-28
3.723160623e-28
-9.564885608e-29
2.02512689e-28
1.691942059e-28
-2.04412329e-28
-2.066228343e-28
-1.581326112e-29
-2.595759543e-30
3.042199376e-29
-2.648600536e-29
1.380213197e-28
3.890879975e-28
1.766666149e-28
-1.192688634e-28
-4.408769017e-29
3.277497413e-29
-1.305714463e-30
-2.039532924e-28
-1.036469165e-28
8.920971737e-30
-1.006619822e-28
-1.458802619e-28
-1.11001227e-28
1.123275276e-29
1.041477147e-28
-2.243027273e-29
-7.182325778e-30
3.165058918e-30
-1.759510098e-28
-1.416108935e-30
1.335671218e-28
1.699885516e-28
-2.603359671e-28
-1.464975679e-28
3.197995202e-28
1.033260204e-29
-3.672823989e-31
-1.226580815e-28
-7.186492966e-31
7.975512951e-29
-2.96785138e-29
-7.474833355e-29
-1.317783288e-30
2.017522104e-29
-1.425448528e-30
5.677038125e-31
-1.288821262e-31
-3.576431253e-31
-2.097728796e-30
6.332667238e-30
1.534629463e-29
-1.164689745e-28
-4.168829713e-29
1.181317536e-28
-6.40123681e-29
6.496421859e-29
1.860446148e-30
5.535861372e-29
1.411805479e-30
-5.837659499e-30
-9.415872042e-31
6.460813011e-29
-1.839211645e-29
1.552444976e-31
-1.851342281e-30
-7.643914005e-30
-1.928377604e-30
1.464041262e-29
4.347239703e-31
6.074816269e-30
9.977700872e-32
-3.734492861e-31
3.695441143e-32
-7.461863642e-31
-1.730881685e-30
3.525809954e-32
3.974424182e-30
6.850400738e-32
-1.31055145e-30
2.678844451e-31
-8.526251303e-31
-1.326796935e-30
-5.601148773e-31
-1.482582021e-30
-3.769029139e-30
4.713563456e-30
7.862945953e-32
1.992266981e-31
4.935438149e-31
2.494222295e-32
1.994782983e-30
2.965265043e-32
2.174122769e-33
3.864476681e-31
8.929860028e-33
7.68034972e-31
2.704539941e-31
-8.623668003e-31
3.689538555e-31
-1.03172662e-30
2.199473854e-33
-5.462717847e-32
3.012708305e-32
-3.723854039e-31
5.874416526e-31
7.773554013e-33
-2.207397877e-31
-9.641174968e-34
-7.662461279e-31
1.007264555e-30
3.605716547e-32
6.688871845e-31
4.870096643e-31
-1.121691452e-30
-2.153684812e-32
3.548021888e-30
5.441798917e-31
-2.503428238e-30
1.182775256e-32
-2.563469708e-30
7.279354886e-31
-1.007358787e-31
-4.110068293e-30
-3.75796106e-31
6.948732222e-30
1.061835424e-30
1.025777742e-30
1.94746051e-30
2.394694395e-32
-3.793243881e-31
-2.447930007e-30
-7.577028569e-32
-5.58303062e-31
7.191648474e-32
-1.13297788e-30
2.474731757e-30
-1.615005228e-30
3.829148551e-30
-2.084238418e-30
3.032059096e-30
5.836662365e-30
-2.638569252e-30
-2.570090107e-30
8.875856648e-33
-5.995397043e-31
-2.833366127e-31
4.420770478e-30
-1.972873335e-30
-2.954882771e-30
-1.508673813e-32
1.09022735e-31
-8.772795588e-31
-4.568623081e-30
-2.518501051e-30
1.009914046e-30
2.960611891e-30
3.305641063e-31
3.972384711e-30
3.143612182e-31
-2.335511205e-30
-1.085291604e-31
7.00782986e-30
-2.488440429e-31
1.522700769e-30
3.70671858e-32
1.391431938e-30
-7.359319651e-31
3.531635975e-30
3.323745553e-30
-3.168256491e-31
2.983483667e-30
2.561891901e-30
6.025147839e-31
-1.321742954e-30
1.531878437e-30
-5.154905545e-31
-1.462398795e-30
-3.955765829e-31
-2.588950321e-30
9.770761386e-31
-1.474468795e-30
-6.102906784e-31
-7.36818568e-31
-3.267239037e-31
2.264486631e-30
-5.590145697e-32
-2.291203749e-31
2.722315247e-31
2.435671646e-30
-1.486267853e-31
-2.201451436e-31
-1.230448967e-31
3.271205085e-30
2.252194541e-32
8.713274022e-31
5.546850243e-33
-4.193791088e-33
8.662119897e-31
-1.273657992e-33
-3.601381067e-33
2.178484226e-31
-2.067794992e-31
-2.143816787e-32
3.905356887e-31
3.329329453e-31
-9.349722922e-31
-2.695679959e-31
2.477477642e-34
1.409484349e-34
1.035403987e-33
8.876976612e-31
1.636176886e-31
-2.398710577e-30
-2.875936047e-31
9.48167362e-34
-2.725542735e-31
9.788911769e-32
-1.279988816e-33
7.971912692e-34
-2.337821954e-34
2.939244816e-32
-8.434283183e-31
-1.538818333e-33
1.588624302e-31
-3.096443813e-30
4.776395234e-33
-2.012448343e-31
)
;

boundaryField
{
    inlet
    {
        type            calculated;
        value           uniform 0;
    }
    outlet
    {
        type            calculated;
        value           uniform -2.01244838e-31;
    }
    wall
    {
        type            empty;
    }
}


// ************************************************************************* //
