/*--------------------------------*- C++ -*----------------------------------*\
  =========                 |
  \\      /  F ield         | OpenFOAM: The Open Source CFD Toolbox
   \\    /   O peration     | Website:  https://openfoam.org
    \\  /    A nd           | Version:  7
     \\/     M anipulation  |
\*---------------------------------------------------------------------------*/
FoamFile
{
    version     2.0;
    format      ascii;
    class       volScalarField;
    location    "0.000558243009";
    object      ddt0(rho,C2H3CO);
}
// * * * * * * * * * * * * * * * * * * * * * * * * * * * * * * * * * * * * * //

dimensions      [1 -3 -1 0 0 0 0];

internalField   nonuniform List<scalar> 
1500
(
-2.640207597e-12
-8.065121639e-12
-1.226510263e-11
-1.255988437e-11
-9.741455412e-12
-6.09766636e-12
-3.2051688e-12
-1.455116316e-12
-5.856268179e-13
-2.196083573e-13
-8.917453599e-14
-5.318264643e-14
-4.990916754e-14
-5.609273788e-14
-6.380187086e-14
-7.056820389e-14
-7.565671967e-14
-7.885660663e-14
-8.012676195e-14
-7.949440911e-14
-7.702751728e-14
-7.282592633e-14
-6.70166504e-14
-5.975003589e-14
-5.119606225e-14
-4.154080317e-14
-3.098320329e-14
-1.973229907e-14
-8.004901878e-15
3.976357416e-15
1.598482553e-14
2.779173381e-14
3.916849268e-14
4.988961208e-14
5.973637407e-14
6.85012847e-14
7.599320664e-14
8.204288178e-14
8.650855777e-14
8.928129017e-14
9.028949145e-14
8.950233322e-14
8.693168312e-14
8.263236549e-14
7.67006765e-14
6.927121618e-14
6.05122328e-14
5.061978201e-14
3.98110701e-14
2.831738292e-14
1.637699717e-14
4.228418238e-15
-7.895776434e-15
-1.977429431e-14
-3.120157851e-14
-4.199133178e-14
-5.1979148e-14
-6.102433429e-14
-6.901102589e-14
-7.584869442e-14
-8.147213499e-14
-8.584098947e-14
-8.893884758e-14
-9.077192966e-14
-9.136736185e-14
-9.077103965e-14
-8.904510523e-14
-8.626508346e-14
-8.25167585e-14
-7.78929092e-14
-7.249004928e-14
-6.64053369e-14
-5.973382041e-14
-5.25661739e-14
-4.498704598e-14
-3.707409227e-14
-2.889771944e-14
-2.052149966e-14
-1.200316697e-14
-3.396063508e-15
5.249133105e-15
1.388257667e-14
2.245349293e-14
3.090865535e-14
3.919122376e-14
4.724004222e-14
5.498944678e-14
6.236959762e-14
6.930730967e-14
7.57273236e-14
8.155393643e-14
8.671289206e-14
9.113342448e-14
9.47503387e-14
9.75060253e-14
9.935229903e-14
1.00251979e-13
1.001801297e-13
9.912491225e-14
9.708801009e-14
9.408462133e-14
9.014303434e-14
8.530382465e-14
7.961873706e-14
7.314932824e-14
6.596545935e-14
5.814373075e-14
4.976594283e-14
4.091765664e-14
3.16869096e-14
2.216311656e-14
1.243616023e-14
2.59565805e-15
-7.269637621e-15
-1.707235094e-14
-2.672696438e-14
-3.615032131e-14
-4.526219299e-14
-5.3985935e-14
-6.224923822e-14
-6.998495848e-14
-7.713198963e-14
-8.363613438e-14
-8.945091401e-14
-9.453826005e-14
-9.886903778e-14
-1.024233655e-13
-1.051907083e-13
-1.07169748e-13
-1.083680482e-13
-1.088015484e-13
-1.084939384e-13
-1.074759626e-13
-1.057847066e-13
-1.034629099e-13
-1.005583336e-13
-9.712319318e-14
-9.32136531e-14
-8.888935201e-14
-8.421292184e-14
-7.92494453e-14
-7.406579833e-14
-6.872982737e-14
-6.330931703e-14
-5.787073581e-14
-5.247775755e-14
-4.718959468e-14
-4.205920256e-14
-3.71314475e-14
-3.244134498e-14
-2.80124949e-14
-2.385584455e-14
-1.99689071e-14
-1.63355346e-14
-1.292633698e-14
-9.699775913e-15
-6.603947416e-15
-3.578986726e-15
-5.600151357e-16
2.519528738e-15
5.724339497e-15
9.113692404e-15
1.27381005e-14
1.663640111e-14
2.083346434e-14
2.53386968e-14
3.014544247e-14
3.523134458e-14
4.055965033e-14
4.608137542e-14
5.173817759e-14
5.746572824e-14
6.319732489e-14
6.886747286e-14
7.441515307e-14
7.978651371e-14
8.493678953e-14
8.983129704e-14
9.444545634e-14
9.876386874e-14
1.027785799e-13
1.064867286e-13
1.098878406e-13
1.12981066e-13
1.157626517e-13
1.182239145e-13
1.203499296e-13
1.221190537e-13
1.235033375e-13
1.244697732e-13
1.249822565e-13
1.250040798e-13
1.245007364e-13
1.234428117e-13
1.218087512e-13
1.195873183e-13
1.167795992e-13
1.134004489e-13
1.094792944e-13
1.050602138e-13
1.002012466e-13
9.497283938e-14
8.945537163e-14
8.373572432e-14
7.790288386e-14
7.204272103e-14
6.623216699e-14
6.053323284e-14
5.498745876e-14
4.961156081e-14
4.439513356e-14
3.930125754e-14
3.42707057e-14
2.923016132e-14
2.410436484e-14
1.883150469e-14
1.338050464e-14
7.768167571e-15
2.073552589e-15
-3.553349875e-15
-8.89161007e-15
-1.366055019e-14
-1.754378724e-14
-2.022640462e-14
-2.144378232e-14
-2.103862061e-14
-1.90206456e-14
-1.562166776e-14
-1.133737125e-14
-6.946691058e-15
-3.500171789e-15
-2.270404193e-15
-4.660643001e-15
-1.207177433e-14
-2.573285905e-14
-4.650598456e-14
-7.468162864e-14
-1.097856144e-13
-1.504222667e-13
-1.941801248e-13
-2.37626086e-13
-2.764118047e-13
-3.055131348e-13
-3.196250386e-13
-3.137331925e-13
-2.839050229e-13
-2.28241064e-13
-1.479062473e-13
-4.685746639e-14
7.130544106e-14
1.452619954e-13
1.545845314e-13
1.626017178e-13
1.70331383e-13
1.779941282e-13
1.856245749e-13
1.93202513e-13
2.007045979e-13
2.081089155e-13
2.154000455e-13
2.225666109e-13
2.2959854e-13
2.36486554e-13
2.432200377e-13
2.497878974e-13
2.561786705e-13
2.623797153e-13
2.683779763e-13
2.741597984e-13
2.797112046e-13
2.850174208e-13
2.900626221e-13
2.948309495e-13
2.993053939e-13
3.034688e-13
3.073018986e-13
3.107858706e-13
3.139001437e-13
3.166239873e-13
3.189345272e-13
3.208088963e-13
3.22222219e-13
3.231489124e-13
3.235620627e-13
3.234327626e-13
3.227314027e-13
3.214265823e-13
3.194848407e-13
3.168714695e-13
3.135498169e-13
3.094810337e-13
3.046242642e-13
2.989363394e-13
2.923721796e-13
2.8488361e-13
2.764199878e-13
2.669282713e-13
2.563519711e-13
2.446314044e-13
2.317040813e-13
2.175034101e-13
2.019594808e-13
1.849979707e-13
1.665409875e-13
1.465058224e-13
1.248051516e-13
1.013466613e-13
7.603287968e-14
4.876101224e-14
1.942242067e-14
-1.209805559e-14
-4.592133615e-14
-8.217580531e-14
-1.209963809e-13
-1.625260451e-13
-2.06914985e-13
-2.54322372e-13
-3.049158566e-13
-3.588719146e-13
-4.16377293e-13
-4.776281788e-13
-5.42831583e-13
-6.122052492e-13
-6.859792169e-13
-7.643945716e-13
-8.477061124e-13
-9.361807743e-13
-1.030099952e-12
-1.129758941e-12
-1.235468357e-12
-1.34755407e-12
-1.466358148e-12
-1.592239919e-12
-1.725575034e-12
-1.86675874e-12
-2.016203802e-12
-2.174343411e-12
-2.34163033e-12
-2.518537989e-12
-2.705561941e-12
-2.903219633e-12
-3.112051327e-12
-3.332621191e-12
-3.565517443e-12
-3.811353366e-12
-4.070768186e-12
-4.344426904e-12
-4.633022059e-12
-4.93727357e-12
-5.257929794e-12
-5.595768022e-12
-5.951594612e-12
-6.326246849e-12
-6.720591528e-12
-7.135527532e-12
-7.571984991e-12
-8.03092554e-12
-8.513343961e-12
-9.020267594e-12
-9.552756707e-12
-1.01119051e-11
-1.069884012e-11
-1.131472248e-11
-1.196074714e-11
-1.263814252e-11
-1.334817109e-11
-1.409212832e-11
-1.487134441e-11
-1.568718128e-11
-1.654103458e-11
-1.743433197e-11
-1.836853323e-11
-1.934512928e-11
-2.036564147e-11
-2.143162141e-11
-2.254464861e-11
-2.370633158e-11
-2.491830455e-11
-2.618222821e-11
-2.74997868e-11
-2.887268757e-11
-3.030265927e-11
-3.179145005e-11
-3.334082658e-11
-3.495257081e-11
-3.662847887e-11
-3.837035977e-11
-4.018003154e-11
-4.205932018e-11
-4.401005745e-11
-4.603407679e-11
-4.813321263e-11
-5.030929648e-11
-5.256415543e-11
-5.489960742e-11
-5.73174605e-11
-5.981950762e-11
-6.240752564e-11
-6.508327121e-11
-6.784847713e-11
-7.07048502e-11
-7.365406676e-11
-7.669777104e-11
-7.983756982e-11
-8.307503096e-11
-8.641167857e-11
-8.984899049e-11
-9.338839533e-11
-9.703126778e-11
-1.007789268e-10
-1.046326318e-10
-1.08593579e-10
-1.126629002e-10
-1.168416564e-10
-1.211308387e-10
-1.255313638e-10
-1.300440699e-10
-1.346697173e-10
-1.394089831e-10
-1.44262461e-10
-1.49230659e-10
-1.543139955e-10
-1.595128012e-10
-1.648273149e-10
-1.702576833e-10
-1.7580396e-10
-1.814661056e-10
-1.872439858e-10
-1.931373723e-10
-1.991459442e-10
-2.05269285e-10
-2.115068875e-10
-2.178581528e-10
-2.243223923e-10
-2.308988287e-10
-2.375866013e-10
-2.443847645e-10
-2.51292295e-10
-2.58308092e-10
-2.654309833e-10
-2.726597297e-10
-2.799930277e-10
-2.874295175e-10
-2.949677864e-10
-3.026063773e-10
-3.103437942e-10
-3.181785087e-10
-3.261089693e-10
-3.341336091e-10
-3.422508539e-10
-3.504591317e-10
-3.587568839e-10
-3.671425722e-10
-3.756146962e-10
-3.841717949e-10
-3.928124677e-10
-4.015353839e-10
-4.103392931e-10
-4.192230425e-10
-4.281855912e-10
-4.3722602e-10
-4.463435562e-10
-4.555375781e-10
-4.648076425e-10
-4.741534937e-10
-4.83575085e-10
-4.930726e-10
-5.026464653e-10
-5.122973743e-10
-5.220263055e-10
-5.318345466e-10
-5.417237136e-10
-5.516957715e-10
-5.617530606e-10
-5.718983184e-10
-5.821347033e-10
-5.924658188e-10
-6.028957418e-10
-6.13429047e-10
-6.240708295e-10
-6.348267402e-10
-6.457030106e-10
-6.567064772e-10
-6.678446189e-10
-6.791255783e-10
-6.905582009e-10
-7.021520614e-10
-7.139174979e-10
-7.258656461e-10
-7.380084702e-10
-7.503587973e-10
-7.629303567e-10
-7.757378132e-10
-7.887968022e-10
-8.021239693e-10
-8.157370123e-10
-8.296547116e-10
-8.438969739e-10
-8.584848832e-10
-8.734407221e-10
-8.887880316e-10
-9.045516521e-10
-9.207577594e-10
-9.374339161e-10
-9.546091219e-10
-9.723138581e-10
-9.905801268e-10
-1.009441516e-09
-1.028933228e-09
-1.049092112e-09
-1.069956691e-09
-1.091566764e-09
-1.113968608e-09
-1.13706042e-09
-1.161045676e-09
-1.186081379e-09
-1.212402639e-09
-1.239675096e-09
-1.267947599e-09
-1.29727678e-09
-1.327721502e-09
-1.359343597e-09
-1.392207785e-09
-1.426381857e-09
-1.461936801e-09
-1.498946947e-09
-1.537489245e-09
-1.577684288e-09
-1.620223814e-09
-1.664631601e-09
-1.710988135e-09
-1.759390611e-09
-1.809782562e-09
-1.862291389e-09
-1.917127973e-09
-1.974398703e-09
-2.034212103e-09
-2.096681866e-09
-2.161926208e-09
-2.230067837e-09
-2.301234133e-09
-2.375557305e-09
-2.453174571e-09
-2.534228432e-09
-2.61886683e-09
-2.707243445e-09
-2.79951796e-09
-2.895856316e-09
-2.996431036e-09
-3.101421582e-09
-3.211014685e-09
-3.325404799e-09
-3.444794508e-09
-3.569395088e-09
-3.699427017e-09
-3.835120666e-09
-3.976717003e-09
-4.124468426e-09
-4.278639745e-09
-4.439509254e-09
-4.607370056e-09
-4.782531536e-09
-4.965321139e-09
-5.156086419e-09
-5.355197544e-09
-5.563050143e-09
-5.780068822e-09
-6.006711276e-09
-6.24347323e-09
-6.490894424e-09
-6.749565661e-09
-7.020137484e-09
-7.303330461e-09
-7.599947737e-09
-7.910890029e-09
-8.237174001e-09
-8.579954245e-09
-8.940550088e-09
-9.320477929e-09
-9.721490562e-09
-1.014562476e-08
-1.059525902e-08
-1.10731836e-08
-1.158268546e-08
-1.21276514e-08
-1.271269316e-08
-1.334329918e-08
-1.402601887e-08
-1.476868609e-08
-1.558069054e-08
-1.647330662e-08
-1.746009304e-08
-1.855737703e-08
-1.978484206e-08
-2.116624062e-08
-2.273025856e-08
-2.45115633e-08
-2.655207471e-08
-2.890250573e-08
-3.162422978e-08
-3.479154387e-08
-3.849441083e-08
-4.28417816e-08
-4.796561932e-08
-5.402577297e-08
-6.121587868e-08
-6.977050381e-08
-7.997379412e-08
-9.216993808e-08
-1.067758275e-07
-1.242963711e-07
-1.45343016e-07
-1.706561388e-07
-2.011321131e-07
-2.378560173e-07
-2.821411532e-07
-3.355767723e-07
-4.000857054e-07
-4.779939264e-07
-5.721144888e-07
-6.858487799e-07
-8.233086134e-07
-9.894633896e-07
-1.190317408e-06
-1.433123395e-06
-1.726639543e-06
-2.08143874e-06
-2.510280409e-06
-3.028557306e-06
-3.654832117e-06
-4.411481332e-06
-5.325467276e-06
-6.429263009e-06
-7.761959263e-06
-9.370587755e-06
-1.131170149e-05
-1.365325921e-05
-1.647686937e-05
-1.988045793e-05
-2.398143374e-05
-2.892043722e-05
-3.486576866e-05
-4.201860617e-05
-5.06191355e-05
-6.095372612e-05
-7.336329975e-05
-8.825304624e-05
-0.0001061036437
-0.00012748414
-0.0001530666359
-0.0001836428833
-0.0002201428626
-0.0002636553239
-0.0003154501658
-0.0003770023634
-0.0004500169345
-0.0005364541446
-0.0006385540045
-0.0007588571487
-0.0009002229078
-0.00106583784
-0.001259213857
-0.001484170478
-0.001744795512
-0.002045381658
-0.002390324631
-0.002783986275
-0.003230509438
-0.003733582426
-0.004296149764
-0.004920069761
-0.005605723584
-0.006351586149
-0.007153775498
-0.008005604106
-0.008897162326
-0.009814970073
-0.01074173267
-0.01165623956
-0.01253342569
-0.01334460152
-0.01405782573
-0.0146383575
-0.01504912171
-0.01525104846
-0.01520326136
-0.01486304629
-0.01418558513
-0.01312368766
-0.0116271088
-0.009641926342
-0.007108937013
-0.003960661934
-0.000116078264
0.004526000432
0.01009062831
0.01671406892
0.02494101348
0.03461918701
0.04858056063
0.06496808453
0.08593727681
0.1118655046
0.1533890936
0.2080464496
0.278176462
0.3615349339
0.4498054194
0.5283835527
0.5823390465
0.593829377
0.5446513522
0.4412889911
0.3068377878
0.2342979858
0.1931564718
0.211408903
0.2691899427
0.3485795891
0.4187596408
0.4729346833
0.506189771
0.5289798233
0.5358214399
0.5277151047
0.5033092571
0.4638818547
0.4131572469
0.3535047534
0.2930418527
0.2269569847
0.1645486606
0.1096102435
0.06315616551
0.0255016428
-0.003554504028
-0.02457419223
-0.03787475506
-0.04306824691
-0.04489537037
-0.04436020918
-0.04200595253
-0.03858561876
-0.03529204863
-0.03222325242
-0.02936182834
-0.0268572919
-0.02290185176
-0.01938458967
-0.01684786172
-0.01440251509
-0.01216802995
-0.01019847505
-0.008502615008
-0.007064450695
-0.005846563154
-0.004835736571
-0.003993172864
-0.003293084801
-0.002712822392
-0.002232857941
-0.001836545431
-0.001509797627
-0.001240754052
-0.001019469586
-0.0008376366096
-0.0006883300731
-0.000565799258
-0.0004652801221
-0.0003828350524
-0.0003152163928
-0.000259750648
-0.0002142406936
-0.0001768835032
-0.0001462012627
-0.0001209839116
-0.0001002413949
-8.316410865e-05
-6.909025329e-05
-5.74789416e-05
-4.788810429e-05
-3.995637437e-05
-3.338825868e-05
-2.794201739e-05
-2.341976817e-05
-1.965941399e-05
-1.652806284e-05
-1.391666593e-05
-1.173564999e-05
-9.911359402e-06
-8.383157826e-06
-7.101066446e-06
-6.023838681e-06
-5.117389905e-06
-4.353515883e-06
-3.708846059e-06
-3.16398793e-06
-2.702826974e-06
-2.31195329e-06
-1.98019148e-06
-1.698214774e-06
-1.45822791e-06
-1.253706192e-06
-1.079180512e-06
-9.300599967e-07
-8.024854953e-07
-6.93208392e-07
-5.994902122e-07
-5.190193482e-07
-4.498418821e-07
-3.903040409e-07
-3.390042584e-07
-2.947531852e-07
-2.565402795e-07
-2.235058598e-07
-1.949176922e-07
-1.701513491e-07
-1.48673712e-07
-1.300290937e-07
-1.138275504e-07
-9.973502501e-08
-8.7465024e-08
-7.67715802e-08
-6.744329623e-08
-5.929829603e-08
-5.217994114e-08
-4.595319173e-08
-4.05015118e-08
-3.572423419e-08
-3.153431483e-08
-2.785641643e-08
-2.462527177e-08
-2.178428424e-08
-1.928433013e-08
-1.708273243e-08
-1.514238083e-08
-1.343097635e-08
-1.192038228e-08
-1.0586066e-08
-9.406618456e-09
-8.363340143e-09
-7.439883853e-09
-6.621947529e-09
-5.897006423e-09
-5.254083883e-09
-4.683551965e-09
-4.176958811e-09
-3.726879029e-09
-3.326783835e-09
-2.970928345e-09
-2.654253542e-09
-2.37230105e-09
-2.121138894e-09
-1.897296861e-09
-1.697710069e-09
-1.519669754e-09
-1.360780242e-09
-1.218921357e-09
-1.09221554e-09
-9.789990232e-10
-8.777965762e-10
-7.872993517e-10
-7.063454559e-10
-6.339028617e-10
-5.690544257e-10
-5.109846075e-10
-4.589678833e-10
-4.123584844e-10
-3.70581349e-10
-3.331241485e-10
-2.995302367e-10
-2.693924154e-10
-2.423474435e-10
-2.18071153e-10
-1.96274133e-10
-1.766979069e-10
-1.591115354e-10
-1.433086427e-10
-1.291046872e-10
-1.163346426e-10
-1.048508617e-10
-9.452121782e-11
-8.52274301e-11
-7.686359657e-11
-6.933486145e-11
-6.255620294e-11
-5.645146085e-11
-5.09523687e-11
-4.599769556e-11
-4.15325273e-11
-3.750759036e-11
-3.387867678e-11
-3.060609014e-11
-2.76542079e-11
-2.499103569e-11
-2.258782864e-11
-2.041876555e-11
-1.846063408e-11
-1.669257248e-11
-1.509582367e-11
-1.365350604e-11
-1.235044636e-11
-1.117298665e-11
-1.010883259e-11
-9.146919682e-12
-8.277277001e-12
-7.490935742e-12
-6.77979963e-12
-6.136589421e-12
-5.554732435e-12
-5.028303887e-12
-4.551964623e-12
-4.120899843e-12
-3.730754745e-12
-3.377607941e-12
-3.057928182e-12
-2.768514186e-12
-2.506474252e-12
-2.269203469e-12
-2.054346807e-12
-1.859773339e-12
-1.683558017e-12
-1.523960034e-12
-1.379410743e-12
-1.248484602e-12
-1.129893942e-12
-1.022475469e-12
-9.251755597e-13
-8.370468985e-13
-7.572217995e-13
-6.849199875e-13
-6.194322632e-13
-5.601193029e-13
-5.063986663e-13
-4.577463866e-13
-4.136875228e-13
-3.737940229e-13
-3.376732358e-13
-3.049711066e-13
-2.753655654e-13
-2.485646715e-13
-2.243109513e-13
-2.02360297e-13
-1.824979622e-13
-1.645269007e-13
-1.48270714e-13
-1.335686319e-13
-1.202730382e-13
-1.082530651e-13
-9.73873677e-14
-8.756695183e-14
-7.869485283e-14
-7.068081564e-14
-6.344338128e-14
-5.690742144e-14
-5.100804439e-14
-4.568405489e-14
-4.088250932e-14
-3.655235792e-14
-3.264879938e-14
-2.913169987e-14
-2.596415337e-14
-2.311120924e-14
-2.054580583e-14
-1.82387452e-14
-1.616423227e-14
-1.4300734e-14
-1.262814808e-14
-1.112742099e-14
-9.780475369e-15
-8.571867148e-15
-7.489385258e-15
-6.520515039e-15
-5.65374757e-15
-4.881061439e-15
-4.191233163e-15
-3.576783911e-15
-3.029339031e-15
-2.542173846e-15
-2.110038554e-15
-1.726191015e-15
-1.38799367e-15
-1.089303899e-15
-8.258276227e-16
-5.932975233e-16
-3.892102716e-16
-2.12649379e-16
-5.81875804e-17
7.79575778e-17
1.950156311e-16
2.965250802e-16
3.835299377e-16
4.584777496e-16
5.219261241e-16
5.747685795e-16
6.178383882e-16
6.52959941e-16
6.81169624e-16
7.031459627e-16
7.19275176e-16
7.310599623e-16
7.404998181e-16
7.45807424e-16
7.477899127e-16
7.47599549e-16
7.44107758e-16
7.391300903e-16
7.330571476e-16
7.256021107e-16
7.164314867e-16
7.057839499e-16
6.941343038e-16
6.821188024e-16
6.69104363e-16
6.563723343e-16
6.430986008e-16
6.294964587e-16
6.155882675e-16
6.022486458e-16
5.887770759e-16
5.755995979e-16
5.623176622e-16
5.491627897e-16
5.362978559e-16
5.232283665e-16
5.111898842e-16
4.992287262e-16
4.873523654e-16
4.760821626e-16
4.645547679e-16
4.538779192e-16
4.435660437e-16
4.331945417e-16
4.229516687e-16
4.131726063e-16
4.032413561e-16
3.942164838e-16
3.855976039e-16
3.766774429e-16
3.677947743e-16
3.592839131e-16
3.509952552e-16
3.42567079e-16
3.352483988e-16
3.277985296e-16
3.206048852e-16
3.135767826e-16
3.070700954e-16
3.006654308e-16
2.942870699e-16
2.881351804e-16
2.816971088e-16
2.750482112e-16
2.69173371e-16
2.640405994e-16
2.583072159e-16
2.532476664e-16
2.483372452e-16
2.434771142e-16
2.389924018e-16
2.34328206e-16
2.293122555e-16
2.249245155e-16
2.204233473e-16
2.159444476e-16
2.120616814e-16
2.077766183e-16
2.036065315e-16
1.99460445e-16
1.958375021e-16
1.921298995e-16
1.888153938e-16
1.852678208e-16
1.81616591e-16
1.77878183e-16
1.740757896e-16
1.707349724e-16
1.680248307e-16
1.651627782e-16
1.624636495e-16
1.595342794e-16
1.565199052e-16
1.535792662e-16
1.504755548e-16
1.472256662e-16
1.441109533e-16
1.410348891e-16
1.383733615e-16
1.357826414e-16
1.332298305e-16
1.30961657e-16
1.285816877e-16
1.261856179e-16
1.237634147e-16
1.213291684e-16
1.189230834e-16
1.16644416e-16
1.143803409e-16
1.128557209e-16
1.112076545e-16
1.089753285e-16
1.067690986e-16
1.044965281e-16
1.02330933e-16
1.004470331e-16
9.884175279e-17
9.694959454e-17
9.47578557e-17
9.266543344e-17
9.059050734e-17
8.868160015e-17
8.716600918e-17
8.545609217e-17
8.383541533e-17
8.196622959e-17
8.016115256e-17
7.851007562e-17
7.689021831e-17
7.541890274e-17
7.383457104e-17
7.241084496e-17
7.102459303e-17
6.95080895e-17
6.824173746e-17
6.71849788e-17
6.599882217e-17
6.482494828e-17
6.353433896e-17
6.218794133e-17
6.097771177e-17
5.973853257e-17
5.856353763e-17
5.734333576e-17
5.596689936e-17
5.474975933e-17
5.339966334e-17
5.224353273e-17
5.107161669e-17
5.002896969e-17
4.89020598e-17
4.797071465e-17
4.722832403e-17
4.622757176e-17
4.527082045e-17
4.433995268e-17
4.335045607e-17
4.23458078e-17
4.157353478e-17
4.066390265e-17
3.960166438e-17
3.86898903e-17
3.764229386e-17
3.679782929e-17
3.609254422e-17
3.562604217e-17
3.49924051e-17
3.432770375e-17
3.364901034e-17
3.303242394e-17
3.230505145e-17
3.149363851e-17
3.066040808e-17
2.996597198e-17
2.929034145e-17
2.870157643e-17
2.810962101e-17
2.743696347e-17
2.671994836e-17
2.597081358e-17
2.556419741e-17
2.521198815e-17
2.488965531e-17
2.4366825e-17
2.370065737e-17
2.300692622e-17
2.254777646e-17
2.217749472e-17
2.188880639e-17
2.139589238e-17
2.084065173e-17
2.045176939e-17
2.00335987e-17
1.944661596e-17
1.882551703e-17
1.831247749e-17
1.778842981e-17
1.733999488e-17
1.698607851e-17
1.664596082e-17
1.640019926e-17
1.620590832e-17
1.580500944e-17
1.557395907e-17
1.526568168e-17
1.489948195e-17
1.446120871e-17
1.406265121e-17
1.381714712e-17
1.341063084e-17
1.302603252e-17
1.26688322e-17
1.233449634e-17
1.193277477e-17
1.155220489e-17
1.137800372e-17
1.116042527e-17
1.091163966e-17
1.071546113e-17
1.051191331e-17
1.033187916e-17
1.010615515e-17
9.832524135e-18
9.576165195e-18
9.319214484e-18
9.033494432e-18
8.836290169e-18
8.782562883e-18
8.728247214e-18
8.661233836e-18
8.544214559e-18
8.303615827e-18
7.978986678e-18
7.677893414e-18
7.517568714e-18
7.192641012e-18
7.010695807e-18
6.831940499e-18
6.668351353e-18
6.559822458e-18
6.387526679e-18
6.192527177e-18
6.029519629e-18
5.912009282e-18
5.767015473e-18
5.566700377e-18
5.416016281e-18
5.273269989e-18
5.220498878e-18
5.174416714e-18
5.05389295e-18
4.935503708e-18
4.799397282e-18
4.632402197e-18
4.487083881e-18
4.452084682e-18
4.407480295e-18
4.242957676e-18
4.207165582e-18
4.153971546e-18
4.073082706e-18
2.115218551e-18
2.393190545e-18
1.335271421e-18
9.639055526e-19
8.301575982e-19
3.183121674e-19
4.757602836e-19
5.295493954e-19
8.394457304e-21
-1.4178107e-19
4.086363314e-19
-8.229054919e-20
-7.838652371e-20
-8.459813256e-20
8.024286233e-20
5.544626954e-20
-4.86327585e-20
5.236169028e-20
4.309800307e-20
8.028476763e-20
-2.795103967e-20
1.774269503e-21
-7.481659587e-20
2.336986813e-20
-2.212711216e-20
4.418841129e-21
3.713626158e-21
-3.234485905e-21
-1.697481268e-22
2.063343038e-21
-8.281221201e-22
3.045815163e-21
2.732574251e-22
9.570277393e-21
7.177316661e-21
6.288684409e-21
-1.530012176e-21
7.047545884e-22
1.083587032e-21
8.661960132e-22
-1.582167356e-22
1.425929668e-21
6.991254205e-22
1.941180179e-22
1.277623986e-21
-4.49120229e-21
-5.266220158e-21
8.173193999e-21
-1.190438261e-20
-2.673829176e-21
-6.775148906e-22
-6.22501741e-22
-2.039247076e-21
3.837640999e-21
4.595405967e-21
-4.338713146e-21
-6.604331492e-23
7.999369091e-21
4.524492852e-21
-5.252685322e-21
-7.159900445e-21
-5.319202234e-21
1.863414374e-21
-4.947037396e-21
-1.488522368e-21
-1.75200408e-21
6.433810928e-22
-1.877292314e-23
4.960597772e-25
-2.948502921e-22
-1.976779853e-22
2.96522506e-23
1.293873726e-21
7.603242113e-22
-6.837495801e-22
-8.595855764e-22
4.027143843e-21
-1.453704716e-21
1.695385649e-21
-2.743279526e-21
5.052022894e-21
-1.629038461e-21
-2.158296605e-21
3.547333021e-22
7.731098691e-22
-1.12944708e-21
-4.546926867e-22
-8.826258624e-22
-3.643515658e-22
-4.854323871e-22
8.078453411e-22
-6.304670092e-22
8.635761771e-23
-4.636977647e-22
1.35247942e-22
1.152579599e-22
-1.916917974e-22
-1.158011588e-22
-1.996779219e-23
6.508131339e-23
-7.367258829e-24
1.033946726e-24
4.191759801e-23
-3.066664066e-23
-5.683570263e-23
-1.226839848e-22
-5.525722566e-23
-1.064012866e-22
1.146793613e-22
-6.428466314e-23
1.380873872e-23
1.952482746e-23
-2.431389631e-23
3.364013199e-23
-7.827243122e-23
-1.742709763e-23
-6.104398269e-24
-3.388761112e-24
2.668929458e-23
-1.433000556e-24
1.015187912e-24
-3.258243828e-24
-1.724657991e-23
1.566371059e-23
-1.921176016e-23
5.312636253e-23
-1.786619584e-23
1.471658261e-23
-1.961452536e-23
-1.131398929e-23
2.262068234e-24
-1.870327552e-23
1.07053354e-22
4.533832875e-24
-6.619790604e-24
1.170305997e-23
-8.073834822e-23
-4.942343701e-24
8.561660692e-23
2.134422389e-23
-3.279108343e-23
4.933875799e-24
-1.053092338e-23
9.560420489e-23
3.889307565e-23
-1.064317536e-22
-9.09073036e-23
1.579303332e-22
8.927065137e-23
7.197073009e-23
6.064580965e-23
-2.699755754e-23
-2.248451304e-22
-1.398127195e-22
-9.871389647e-23
1.210764143e-23
-2.009266925e-23
-3.283511089e-24
1.66353253e-22
3.354942526e-23
1.438614072e-22
-5.195594995e-24
1.131001681e-22
7.105138793e-23
5.866732908e-24
-3.822720612e-23
-8.281049584e-23
8.18310521e-23
2.105462145e-23
1.305457534e-22
-6.043320988e-23
-1.824807963e-23
1.884028946e-23
-3.148032532e-23
-3.912499398e-23
-4.320959754e-23
4.544299938e-23
5.397010255e-23
1.114912798e-22
8.99138346e-23
8.725164638e-23
6.237432721e-23
1.25754361e-22
1.102073743e-22
2.214519059e-22
7.509674076e-24
7.103115397e-23
-3.799713966e-23
9.427937875e-23
-7.40784154e-24
1.069183428e-22
1.629107277e-22
6.102903614e-24
1.197581142e-22
7.195765582e-23
6.643099737e-23
1.356599698e-23
3.450863562e-23
5.846423357e-23
-1.023177245e-22
-8.855526355e-23
-6.515922745e-23
9.675201616e-24
-3.559537349e-23
-5.70644902e-23
-5.382337365e-23
-3.770959622e-23
4.62378062e-23
2.475571953e-23
-2.830605655e-23
7.258349176e-23
5.630047413e-23
-2.801169769e-23
-1.150301014e-23
-1.75363022e-23
1.241461692e-22
-2.157895732e-23
2.596204185e-23
-2.227732132e-23
-1.064293538e-24
1.494649148e-23
7.644585585e-24
-1.233079264e-23
1.623574339e-24
-9.664771029e-24
8.325435358e-24
5.655353521e-23
3.111373353e-25
-1.017381219e-23
-1.129749595e-23
-1.871731816e-23
-2.357641464e-23
2.319017685e-23
2.260706639e-23
-5.384593714e-23
-1.903770305e-23
-8.413916591e-24
-9.771088618e-23
-7.068660142e-23
-6.654535657e-23
-1.729927956e-22
-2.445810419e-23
-1.534649118e-22
-1.045508045e-22
-9.429776063e-23
-1.927928621e-22
-2.422316964e-22
-8.668188068e-23
2.240928274e-23
-8.631039096e-23
)
;

boundaryField
{
    inlet
    {
        type            calculated;
        value           uniform 0;
    }
    outlet
    {
        type            calculated;
        value           uniform -8.631020953e-23;
    }
    wall
    {
        type            empty;
    }
}


// ************************************************************************* //
