/*--------------------------------*- C++ -*----------------------------------*\
  =========                 |
  \\      /  F ield         | OpenFOAM: The Open Source CFD Toolbox
   \\    /   O peration     | Website:  https://openfoam.org
    \\  /    A nd           | Version:  7
     \\/     M anipulation  |
\*---------------------------------------------------------------------------*/
FoamFile
{
    version     2.0;
    format      ascii;
    class       volScalarField;
    location    "0.000558243009";
    object      ddt0(rho,CO2);
}
// * * * * * * * * * * * * * * * * * * * * * * * * * * * * * * * * * * * * * //

dimensions      [1 -3 -1 0 0 0 0];

internalField   nonuniform List<scalar> 
1500
(
-1.840591142e-06
-5.686357366e-06
-8.729811432e-06
-9.034992594e-06
-7.087947672e-06
-4.490025236e-06
-2.389562981e-06
-1.098808329e-06
-4.479406297e-07
-1.697111352e-07
-6.870278049e-08
-3.985167657e-08
-3.642229295e-08
-4.052191424e-08
-4.596636622e-08
-5.080827207e-08
-5.44638904e-08
-5.67655811e-08
-5.767951199e-08
-5.722422843e-08
-5.54484148e-08
-5.242388807e-08
-4.824206871e-08
-4.301118175e-08
-3.685358685e-08
-2.990322948e-08
-2.230332032e-08
-1.420433461e-08
-5.762344507e-09
2.86238876e-09
1.150670829e-08
2.000593458e-08
2.819551701e-08
3.591313605e-08
4.300134718e-08
4.931078544e-08
5.47038603e-08
5.905873092e-08
6.227335664e-08
6.426931355e-08
6.499506922e-08
6.442843183e-08
6.257794428e-08
5.948307197e-08
5.521313387e-08
4.986502214e-08
4.355985061e-08
3.64387503e-08
2.865807765e-08
2.038432416e-08
1.178901381e-08
3.043835194e-09
-5.683790378e-09
-1.423456499e-08
-2.246051813e-08
-3.022754341e-08
-3.74172927e-08
-4.392848795e-08
-4.967772373e-08
-5.459983299e-08
-5.86478778e-08
-6.179280635e-08
-6.402280566e-08
-6.534235341e-08
-6.577097644e-08
-6.534171272e-08
-6.409929543e-08
-6.209809125e-08
-5.939985211e-08
-5.607136504e-08
-5.21821056e-08
-4.780201332e-08
-4.299950898e-08
-3.783986445e-08
-3.238401422e-08
-2.66878588e-08
-2.080208063e-08
-1.477244222e-08
-8.640503567e-09
-2.444663067e-09
3.778598793e-09
9.993400271e-09
1.616319131e-08
2.224965674e-08
2.821188005e-08
3.400583793e-08
3.958426216e-08
4.489687836e-08
4.989100411e-08
5.451246386e-08
5.870676264e-08
6.242044709e-08
6.56025761e-08
6.820621896e-08
7.018990541e-08
7.151894919e-08
7.216658565e-08
7.211486481e-08
7.135526436e-08
6.988899633e-08
6.7727001e-08
6.488964178e-08
6.140612714e-08
5.731370553e-08
5.265668875e-08
4.748536654e-08
4.185487969e-08
3.582411246e-08
2.945465613e-08
2.280988462e-08
1.595416329e-08
8.952194514e-09
1.868489537e-09
-5.233063088e-09
-1.228956569e-08
-1.923945831e-08
-2.602288044e-08
-3.25820793e-08
-3.886188231e-08
-4.481023748e-08
-5.037881102e-08
-5.552361556e-08
-6.020563704e-08
-6.439141768e-08
-6.80535538e-08
-7.117107273e-08
-7.372966258e-08
-7.572173975e-08
-7.714635544e-08
-7.800895419e-08
-7.83210102e-08
-7.809957654e-08
-7.736678459e-08
-7.614933062e-08
-7.447798072e-08
-7.23871157e-08
-6.991432302e-08
-6.710003285e-08
-6.398717616e-08
-6.062083861e-08
-5.704787023e-08
-5.331641166e-08
-4.947530239e-08
-4.557333728e-08
-4.165836384e-08
-3.777621777e-08
-3.396952323e-08
-3.027640031e-08
-2.672914609e-08
-2.33529665e-08
-2.016484998e-08
-1.7172677e-08
-1.437465738e-08
-1.175916698e-08
-9.305049348e-09
-6.982402944e-09
-4.753864648e-09
-2.576340742e-09
-4.031280318e-10
1.81368771e-09
4.120677099e-09
6.560509489e-09
9.16954681e-09
1.197574624e-08
1.499701056e-08
1.824011105e-08
2.170025645e-08
2.536135311e-08
2.919694461e-08
3.317176931e-08
3.724382959e-08
4.136681826e-08
4.549271943e-08
4.957438669e-08
5.356789529e-08
5.743447993e-08
6.114191614e-08
6.466523704e-08
6.798674878e-08
7.10953665e-08
7.398536433e-08
7.665468251e-08
7.910297965e-08
8.132964412e-08
8.333197416e-08
8.510371899e-08
8.663413521e-08
8.790764266e-08
8.890412214e-08
8.959981273e-08
8.996872485e-08
8.998443438e-08
8.962210167e-08
8.886055248e-08
8.768427079e-08
8.608516792e-08
8.40640258e-08
8.163153772e-08
7.880888686e-08
7.562780295e-08
7.213006585e-08
6.836638654e-08
6.439462643e-08
6.0277327e-08
5.60785452e-08
5.186009539e-08
4.767735656e-08
4.357496754e-08
3.958283108e-08
3.571298028e-08
3.19579248e-08
2.829108807e-08
2.466983536e-08
2.10413895e-08
1.735157472e-08
1.355589593e-08
9.631982711e-09
5.591930813e-09
1.492650893e-09
-2.557886005e-09
-6.400643177e-09
-9.833574156e-09
-1.262893004e-08
-1.456001747e-08
-1.543634922e-08
-1.514469275e-08
-1.369204945e-08
-1.124528854e-08
-8.161229193e-09
-5.000589375e-09
-2.519605661e-09
-1.634355022e-09
-3.354973147e-09
-8.6898906e-09
-1.852384968e-08
-3.347742862e-08
-5.375974563e-08
-7.902954502e-08
-1.082824831e-07
-1.397838969e-07
-1.710665198e-07
-1.990122388e-07
-2.200365573e-07
-2.303970719e-07
-2.266439699e-07
-2.062322712e-07
-1.682098435e-07
-1.138395229e-07
-4.609272142e-08
3.295639739e-08
8.215960236e-08
8.877088842e-08
9.382553328e-08
9.850275329e-08
1.030770398e-07
1.076014839e-07
1.120660922e-07
1.164490637e-07
1.207261113e-07
1.248777629e-07
1.288891511e-07
1.327481348e-07
1.364443656e-07
1.399670925e-07
1.433052783e-07
1.46447393e-07
1.493807156e-07
1.520918693e-07
1.545667132e-07
1.567905721e-07
1.587479117e-07
1.604221616e-07
1.6179644e-07
1.628527393e-07
1.635726332e-07
1.639358451e-07
1.639220797e-07
1.635094216e-07
1.626754694e-07
1.613958923e-07
1.596459642e-07
1.573990977e-07
1.546277673e-07
1.513030454e-07
1.473941117e-07
1.42869169e-07
1.37694646e-07
1.318349904e-07
1.252532423e-07
1.17910522e-07
1.097658358e-07
1.007762052e-07
9.089643724e-08
8.007940774e-08
6.827520229e-08
5.543156545e-08
4.149394791e-08
2.64047513e-08
1.010351377e-08
-7.47280584e-09
-2.639075469e-08
-4.671980896e-08
-6.853315022e-08
-9.190703931e-08
-1.169216948e-07
-1.436611222e-07
-1.722133556e-07
-2.02670544e-07
-2.351290318e-07
-2.696896903e-07
-3.064583579e-07
-3.455452336e-07
-3.870660463e-07
-4.311413146e-07
-4.77897377e-07
-5.274656884e-07
-5.799840169e-07
-6.355959796e-07
-6.944511884e-07
-7.567061797e-07
-8.225236907e-07
-8.920735286e-07
-9.655323614e-07
-1.043084699e-06
-1.124921826e-06
-1.211243562e-06
-1.302256938e-06
-1.398177684e-06
-1.499229625e-06
-1.605645491e-06
-1.717666646e-06
-1.835543535e-06
-1.959536207e-06
-2.089913377e-06
-2.226954529e-06
-2.370948128e-06
-2.522193441e-06
-2.680999611e-06
-2.847686141e-06
-3.022583629e-06
-3.20603327e-06
-3.398387182e-06
-3.600008849e-06
-3.811272865e-06
-4.032565308e-06
-4.264284007e-06
-4.506838036e-06
-4.760648615e-06
-5.026148607e-06
-5.303782894e-06
-5.594008349e-06
-5.89729353e-06
-6.214119648e-06
-6.544979137e-06
-6.890377145e-06
-7.250830535e-06
-7.626867691e-06
-8.019029349e-06
-8.427867802e-06
-8.853946816e-06
-9.29784174e-06
-9.760139196e-06
-1.024143661e-05
-1.074234263e-05
-1.126347621e-05
-1.180546685e-05
-1.236895361e-05
-1.295458613e-05
-1.356302235e-05
-1.419492976e-05
-1.48509841e-05
-1.55318694e-05
-1.623827716e-05
-1.697090593e-05
-1.77304612e-05
-1.851765374e-05
-1.933320065e-05
-2.017782309e-05
-2.105224705e-05
-2.195720156e-05
-2.289341863e-05
-2.386163254e-05
-2.486257876e-05
-2.589699385e-05
-2.696561359e-05
-2.80691729e-05
-2.920840551e-05
-3.038404191e-05
-3.159680938e-05
-3.284743129e-05
-3.413662498e-05
-3.546510225e-05
-3.683356764e-05
-3.824271833e-05
-3.96932419e-05
-4.118581703e-05
-4.272111092e-05
-4.429977995e-05
-4.592246803e-05
-4.758980534e-05
-4.930240832e-05
-5.106087786e-05
-5.28657997e-05
-5.471774213e-05
-5.661725656e-05
-5.856487564e-05
-6.056111319e-05
-6.260646368e-05
-6.47014006e-05
-6.684637688e-05
-6.90418239e-05
-7.128815062e-05
-7.358574427e-05
-7.593496793e-05
-7.833616231e-05
-8.078964478e-05
-8.329570784e-05
-8.585462116e-05
-8.846662978e-05
-9.113195515e-05
-9.38507952e-05
-9.66233232e-05
-9.944969036e-05
-0.0001023300245
-0.0001052644306
-0.0001082529924
-0.0001112957727
-0.0001143928135
-0.0001175441379
-0.0001207497512
-0.0001240096408
-0.0001273237792
-0.0001306921248
-0.000134114623
-0.0001375912084
-0.0001411218075
-0.0001447063389
-0.0001483447177
-0.0001520368557
-0.0001557826656
-0.0001595820633
-0.0001634349698
-0.0001673413155
-0.0001713010424
-0.0001753141082
-0.00017938049
-0.0001835001867
-0.0001876732242
-0.0001918996596
-0.0001961795846
-0.0002005131302
-0.0002049004722
-0.0002093418344
-0.0002138374971
-0.000218387797
-0.0002229931377
-0.0002276539938
-0.0002323709149
-0.0002371445343
-0.0002419755749
-0.0002468648531
-0.000251813291
-0.0002568219163
-0.0002618918766
-0.0002670244411
-0.0002722210113
-0.00027748313
-0.0002828124861
-0.0002882109248
-0.0002936804557
-0.0002992232631
-0.000304841714
-0.0003105383662
-0.0003163159799
-0.000322177527
-0.000328126201
-0.000334165426
-0.0003402988706
-0.0003465304564
-0.0003528643675
-0.0003593050663
-0.0003658573033
-0.0003725261267
-0.0003793168992
-0.0003862353051
-0.0003932873687
-0.0004004794635
-0.0004078183278
-0.0004153110787
-0.0004229652242
-0.0004307886787
-0.0004387897789
-0.0004469772987
-0.0004553604626
-0.000463948964
-0.0004727529827
-0.0004817831968
-0.0004910508024
-0.0005005675367
-0.000510345684
-0.000520398105
-0.0005307382536
-0.0005413801918
-0.0005523386135
-0.0005636288666
-0.0005752669722
-0.00058726964
-0.0005996542989
-0.0006124391048
-0.0006256429548
-0.0006392854757
-0.0006533867593
-0.0006679713374
-0.0006829711877
-0.0006985054202
-0.0007146653281
-0.0007315898985
-0.0007490681385
-0.0007671225181
-0.0007857808316
-0.0008050719579
-0.0008250262343
-0.0008456753819
-0.0008670526158
-0.0008891927144
-0.000912132138
-0.0009359084125
-0.0009605845729
-0.0009865773021
-0.001013582821
-0.001041637427
-0.001070789509
-0.0011009911
-0.00113230656
-0.001164853097
-0.001198682682
-0.001233847368
-0.001270401992
-0.001308403736
-0.00134791208
-0.00138898892
-0.001431698672
-0.001476108404
-0.001522288033
-0.001570310462
-0.001620251806
-0.001672191623
-0.001726213139
-0.001782403545
-0.001840854325
-0.001901661591
-0.001964926522
-0.002030755799
-0.002099262177
-0.002170565054
-0.002244791209
-0.002322075583
-0.002402562219
-0.002486405336
-0.002573770552
-0.002664836337
-0.002759795653
-0.002858857888
-0.002962251071
-0.003070224495
-0.00318305169
-0.003301033957
-0.003424504434
-0.003553832832
-0.003689431
-0.003831759312
-0.003981334235
-0.004138737048
-0.004304624086
-0.0044797386
-0.004664924729
-0.004861143649
-0.005069492534
-0.005291226601
-0.005527784903
-0.005780820384
-0.006052234973
-0.006344220517
-0.006659306569
-0.00700041616
-0.007370930825
-0.007774766531
-0.008216462225
-0.008701283099
-0.009235341173
-0.009825735663
-0.01048071701
-0.01120987784
-0.01202437577
-0.01293719311
-0.01396343947
-0.01512070446
-0.01642946866
-0.01791358236
-0.01960082319
-0.02152354551
-0.02371943658
-0.02623239685
-0.02911356442
-0.03242250735
-0.03622861081
-0.04061269054
-0.04566886922
-0.05150675808
-0.05825399283
-0.06605917999
-0.07509532117
-0.08556378863
-0.09769894256
-0.1117734895
-0.1281047016
-0.1470616286
-0.1690734622
-0.1946392311
-0.2243390319
-0.2588470371
-0.2989465527
-0.3455474356
-0.3997062375
-0.4626494767
-0.5358005204
-0.6208105949
-0.7195945538
-0.8343720696
-0.9677150573
-1.122602184
-1.302481462
-1.511342042
-1.753796412
-2.035174354
-2.361630186
-2.740264836
-3.179264519
-3.688057849
-4.277493225
-4.960038484
-5.750004579
-6.663795062
-7.720182774
-8.940614577
-10.34954442
-11.97479396
-13.84793815
-16.00471194
-18.48543078
-21.3354151
-24.60540372
-28.35193672
-32.63768063
-37.5316622
-43.10936584
-49.45264076
-56.64937656
-64.792724
-73.98011392
-84.31152953
-95.88723662
-108.8047362
-123.1547861
-139.0167066
-156.4521647
-175.4983401
-196.1598556
-218.3998645
-242.1305032
-267.2031044
-293.3986986
-320.4194873
-347.8820877
-375.3134216
-402.1501205
-427.7422658
-451.3619274
-472.2169764
-489.4697768
-502.2602291
-509.7319688
-511.0598669
-505.4777737
-492.3023644
-470.9535891
-440.9686054
-402.0077903
-353.8580777
-296.4229302
-229.7183865
-153.8619861
-69.07154146
24.3156031
125.775375
234.4706215
348.9570427
476.3678989
605.5590244
796.1456398
965.3026621
1097.474693
1038.64868
1280.827006
1474.722579
1650.504943
1824.825209
2005.868255
2202.406299
2409.285374
2643.382427
2927.386904
3118.690429
3529.241797
3144.024171
3515.2646
3858.541323
4245.959326
4031.841778
4382.05939
4728.097568
5126.174134
4677.843913
5060.35283
5413.044602
5763.15665
6119.675429
6486.78575
6865.447318
6761.774568
7066.06562
7155.066456
7366.08956
7561.456169
7748.240773
7938.375354
8136.271622
8204.937706
7809.094777
7420.876394
7012.236942
6524.806321
6053.506323
5771.65368
5712.801947
5845.151232
6137.243481
5618.907726
5170.619311
5193.580489
5061.833874
4853.431818
4616.952419
4381.40037
4161.983676
3941.664244
3755.676755
3581.168413
3417.419997
3262.985267
3116.775656
2978.023357
2846.22772
2721.073161
2602.353418
2489.933911
2383.658099
2283.371997
2188.905241
2100.065319
2016.63521
1938.391448
1865.08796
1796.47556
1732.306044
1672.331343
1616.309897
1564.007833
1515.200781
1469.67467
1427.226339
1387.663668
1350.805505
1316.481451
1284.531452
1254.805379
1227.1626
1201.471412
1177.608584
1155.458846
1134.914417
1115.87454
1098.245022
1081.937824
1066.870662
1052.966622
1040.153784
1028.364935
1017.537183
1007.61173
998.5335416
990.2511028
982.7161964
975.8836404
969.71109
964.1588461
959.1896514
954.7685549
950.8626958
947.4412241
944.4750795
941.9369352
939.8010307
938.0431094
936.6402388
935.570803
934.8143292
934.3514819
934.1639356
934.2343084
934.5461292
935.083738
935.8322457
936.7774961
937.9059901
939.2048502
940.661813
942.2651256
944.0035709
945.8664041
947.8433105
949.9244367
952.1002815
954.3617402
956.7000507
959.106782
961.5738105
964.093299
966.6576998
969.2597152
971.8923109
974.5525366
977.2261771
979.9113894
982.6004798
985.2882495
987.9688337
990.6366595
993.2862489
995.9123509
998.5097945
1001.073597
1003.598915
1006.081046
1008.515399
1010.897544
1013.223146
1015.487998
1017.687998
1019.819192
1021.877687
1023.859721
1025.761641
1027.579866
1029.310932
1030.951472
1032.498198
1033.947912
1035.297518
1036.543974
1037.68437
1038.715828
1039.635577
1040.440922
1041.129228
1041.69795
1042.144609
1042.466826
1042.662232
1042.728574
1042.663664
1042.46537
1042.131621
1041.660428
1041.04985
1040.298002
1039.403078
1038.363343
1037.177082
1035.842667
1034.358531
1032.723134
1030.935038
1028.992816
1026.89512
1024.640643
1022.228152
1019.656447
1016.924368
1014.030849
1010.97482
1007.755296
1004.371338
1000.822053
997.1065707
993.2241064
989.1739052
984.9552353
980.5674443
976.0099204
971.2820515
966.3833405
961.3132665
956.0713952
950.657306
945.0706336
939.3110613
933.3782898
927.2720668
920.9921804
914.5384868
907.910813
901.1090885
894.1332438
886.9832526
879.6591425
872.1609365
864.4887368
856.642646
848.6228311
840.4294626
832.0627629
823.5229914
814.8104072
805.9253399
796.8681421
787.6391697
778.2388463
768.6675897
758.9258829
749.0142113
738.9331027
728.6831168
718.264824
707.6788243
696.9257725
686.0063249
674.921156
663.6709988
652.256583
640.6786848
628.9380858
617.0356013
604.9720843
592.748387
580.3654038
567.8240263
555.1252228
542.2699305
529.2591268
516.0938332
502.7750528
489.3038353
475.6812546
461.9083948
447.9863663
433.9162826
419.6993193
405.3366276
390.8293929
376.1788296
361.3861683
346.4526575
331.379533
316.1681112
300.8196786
285.3355493
269.7170638
253.9655795
238.0824657
222.0690992
205.9268925
189.6572525
173.2616459
156.7414936
140.0982773
123.3334945
106.4486176
89.44517766
72.32470558
55.08874783
37.73884914
20.27659768
2.703575502
-14.97861155
-32.76834859
-50.66400621
-68.66393505
-86.76648744
-104.969984
-123.2727469
-141.6730744
-160.1692666
-178.7595853
-197.4423132
-216.2156814
-235.077947
-254.0273364
-273.0620669
-292.1803319
-311.3803494
-330.6602649
-350.0182813
-369.4525437
-388.9611927
-408.5423811
-428.1942286
-447.914845
-467.7023364
-487.5548076
-507.4703309
-527.4469849
-547.482838
-567.575937
-587.7243392
-607.9260504
-628.1791267
-648.4815747
-668.8313951
-689.226586
-709.6651434
-730.1450418
-750.6642637
-771.2207558
-791.8124777
-812.4373818
-833.0934189
-853.7784678
-874.4905152
-895.2274308
-915.9871475
-936.7675556
-957.5665478
-978.3820066
-999.211825
-1020.053859
-1040.905989
-1061.766061
-1082.631942
-1103.501475
-1124.372491
-1145.242838
-1166.110348
-1186.97284
-1207.828134
-1228.674063
-1249.508399
-1270.328995
-1291.133627
-1311.920092
-1332.689881
-1353.433331
-1374.151996
-1394.843654
-1415.506854
-1436.137842
-1456.735201
-1477.296635
-1497.81996
-1518.302944
-1538.743356
-1559.138951
-1579.487522
-1599.786819
-1620.034625
-1640.228697
-1660.366809
-1680.446717
-1700.466208
-1720.423045
-1740.315014
-1760.13987
-1779.895401
-1799.579389
-1819.189623
-1838.723877
-1858.179954
-1877.555636
-1896.848743
-1916.057065
-1935.178411
-1954.210603
-1973.151466
-1991.998819
-2010.750512
-2029.404373
-2047.958273
-2066.410047
-2084.757589
-2102.998754
-2121.131451
-2139.153561
-2157.062997
-2174.857687
-2192.535554
-2210.094535
-2227.532613
-2244.847724
-2262.037873
-2279.101048
-2296.035266
-2312.838554
-2329.508956
-2346.044526
-2362.443347
-2378.703515
-2394.823132
-2410.800346
-2426.633277
-2442.320121
-2457.859072
-2473.248337
-2488.486128
-2503.570722
-2518.500392
-2533.273444
-2547.888193
-2562.343008
-2576.636246
-2590.766307
-2604.731651
-2618.53069
-2632.161944
-2645.6239
-2658.915123
-2672.034173
-2684.979637
-2697.750169
-2710.344436
-2722.761116
-2734.99895
-2747.056709
-2758.93319
-2770.627213
-2782.137663
-2793.463442
-2804.603488
-2815.55679
-2826.32237
-2836.89927
-2847.286608
-2857.483514
-2867.489166
-2877.302796
-2886.923644
-2896.351046
-2905.584335
-2914.622905
-2923.466209
-2932.113712
-2940.564966
-2948.819525
-2956.877037
-2964.737148
-2972.399597
-2979.864153
-2987.130632
-2994.198892
-3001.068858
-3007.740509
-3014.213846
-3020.488959
-3026.565975
-3032.445057
-3038.126428
-3043.610408
-3048.897299
-3053.987512
-3058.881478
-3063.579732
-3068.082789
-3072.391279
-3076.505886
-3080.427309
-3084.156352
-3087.693814
-3091.040636
-3094.197729
-3097.166112
-3099.946852
-3102.541064
-3104.949923
-3107.174654
-3109.216552
-3111.076969
-3112.757291
-3114.258987
-3115.583553
-3116.732571
-3117.707652
-3118.510476
-3119.142776
-3119.606325
-3119.902971
-3120.034579
-3120.003128
-3119.810569
-3119.458978
-3118.950399
-3118.287012
-3117.470979
-3116.504534
-3115.389963
-3114.129593
-3112.725768
-3111.180934
-3109.497514
-3107.678047
-3105.725043
-3103.641133
-3101.428926
-3099.091149
-3096.626739
-3094.046032
-3091.348169
-3088.536101
-3085.612813
-3082.581401
-3079.444172
-3076.205834
-3072.868707
-3069.435852
-3065.910027
-3062.293693
-3058.588547
-3054.795171
-3050.912981
-3046.937978
-3042.865147
-3038.679358
-3034.374427
-3029.887622
-3025.316732
-3020.20248
-3015.394783
-3009.451232
-3003.230389
-2996.961902
-2990.08496
-2977.249068
-2784.972273
-2237.939841
-1723.725362
-1238.049095
-783.7454816
-363.0476877
22.64923352
372.2511412
685.0453693
960.7278014
1199.373173
1401.424441
1567.671234
1699.225571
1797.49427
1864.148781
1901.092902
1910.428985
1894.423214
1855.470429
1796.05901
1718.736301
1626.074957
1520.640693
1404.961692
1281.500084
1152.62571
1020.592439
887.5171845
755.3618315
625.9181167
500.795549
381.4124091
268.9897676
164.5484998
68.90917752
-17.305289
-93.66440522
-159.9224338
-216.0085845
-262.0152365
-298.1844885
-324.8933027
-342.6375348
-352.0151427
-353.7088677
-348.4686955
-337.094367
-320.4182349
-299.2887116
-274.55456
-247.0502395
-217.5824948
-186.9183559
-155.7746754
-124.8092875
-94.61387679
-65.70855081
-38.53814242
-13.47018773
9.20548712
29.27565253
46.60116309
61.11318704
72.80832601
81.74279641
88.0258592
91.81267244
93.29675935
92.70227226
90.27623052
86.28089915
80.98646625
74.66415645
67.5799029
59.98867938
52.12957967
44.22169381
36.46082804
29.01707746
22.03324835
15.6241
9.87636426
4.849477512
0.5769496084
-2.931717093
-5.688656589
-7.724917085
-9.08749083
-9.836201179
-10.04054553
-9.77658643
-9.123978183
-8.163199805
-6.973058209
-5.628510834
-4.198841771
-2.746212183
-1.324595718
0.02091026658
1.254409489
2.349197635
3.287452319
4.059664713
4.663859126
5.104648633
5.392178654
5.541004577
5.56895362
5.496008909
5.343256904
5.131926049
4.882543858
4.614228167
4.344123135
4.086986047
3.854919704
3.657244795
3.50049959
3.388550697
3.322796259
3.302441246
3.324826021
3.385785139
3.480018795
3.601459467
3.74361847
3.89990191
4.063883124
4.229530089
4.391382169
4.544675306
4.68541942
4.810430029
4.917321667
5.00446756
5.070933716
5.11639507
5.141040195
5.145470991
5.130602849
5.097572012
5.04764995
4.982170618
4.902471476
4.809845815
4.705511232
4.590587099
4.466085777
4.33290995
4.19185902
4.04363877
3.888875581
3.728131877
3.561921751
3.390726394
3.215008888
3.035226702
2.851842603
2.665334625
2.476203506
2.284978984
2.092225254
1.898543845
1.704576636
1.511006665
1.318557282
1.12799065
0.9401035693
0.7557218677
0.5756924513
0.4008741462
0.2321255888
0.07029252666
-0.08380712966
-0.2293983355
-0.3657648879
-0.4922651291
-0.6083468419
-0.71356057
-0.8075720535
-0.8901713751
-0.9612803637
-1.020957039
-1.06939737
-1.106934197
-1.134033793
-1.151290053
-1.159416654
-1.159237254
-1.151675224
-1.137741385
-1.118521067
-1.095161695
-1.068858379
-1.040840395
-1.012356659
-0.9846613665
-0.9589987894
-0.9365880537
-0.9186077721
-0.9061794525
-0.9003514313
-0.9020825885
-0.9122257296
-0.9315119324
-0.9605350654
-0.9997379639
-1.049399861
-1.10962593
-1.180339368
-1.261275834
-1.351981783
-1.451815216
-1.559950816
-1.675388179
-1.796963486
-1.923364806
-2.053150236
-2.184768901
-2.316583926
-2.446897612
-2.573977429
-2.696082761
-2.81149179
-2.918527473
-3.015582812
-3.101144056
-3.173811626
-3.232318806
-3.275546927
-3.302537607
-3.312501511
-3.30482409
-3.279067948
-3.234972629
-3.172452298
-3.091590922
-2.992636016
-2.875989897
-2.742198162
-2.59193408
-2.42597792
-2.245189221
-2.050470153
-1.842712539
-1.622715325
-1.390946273
-1.147255773
-0.8894413476
)
;

boundaryField
{
    inlet
    {
        type            calculated;
        value           uniform 0;
    }
    outlet
    {
        type            calculated;
        value           uniform -0.7301041522;
    }
    wall
    {
        type            empty;
    }
}


// ************************************************************************* //
