/*--------------------------------*- C++ -*----------------------------------*\
  =========                 |
  \\      /  F ield         | OpenFOAM: The Open Source CFD Toolbox
   \\    /   O peration     | Website:  https://openfoam.org
    \\  /    A nd           | Version:  7
     \\/     M anipulation  |
\*---------------------------------------------------------------------------*/
FoamFile
{
    version     2.0;
    format      ascii;
    class       volScalarField;
    location    "0.000558243009";
    object      ddt0(rho,C3H4-P);
}
// * * * * * * * * * * * * * * * * * * * * * * * * * * * * * * * * * * * * * //

dimensions      [1 -3 -1 0 0 0 0];

internalField   nonuniform List<scalar> 
1500
(
-1.886750652e-10
-5.762420855e-10
-8.763658426e-10
-8.978686881e-10
-6.970057063e-10
-4.368042332e-10
-2.299145762e-10
-1.045338419e-10
-4.213498535e-11
-1.582063002e-11
-6.423058227e-12
-3.819660079e-12
-3.574712693e-12
-4.013394643e-12
-4.563696723e-12
-5.047347463e-12
-5.411217198e-12
-5.640064503e-12
-5.730905732e-12
-5.685677114e-12
-5.509237493e-12
-5.208727165e-12
-4.793230439e-12
-4.273500527e-12
-3.661694855e-12
-2.971121968e-12
-2.216010981e-12
-1.411312803e-12
-5.725344272e-13
2.844009214e-13
1.143282326e-12
1.987747569e-12
2.801447248e-12
3.568253641e-12
4.272523385e-12
4.899415898e-12
5.435260471e-12
5.867951253e-12
6.1873497e-12
6.385663783e-12
6.457773337e-12
6.401473438e-12
6.217612885e-12
5.910112884e-12
5.485860822e-12
4.954483689e-12
4.328015113e-12
3.620477568e-12
2.847406301e-12
2.025343563e-12
1.171331609e-12
3.024290606e-13
-5.647294534e-13
-1.414316426e-12
-2.231629828e-12
-3.003345119e-12
-3.717703482e-12
-4.364642146e-12
-4.935874111e-12
-5.424924533e-12
-5.82712975e-12
-6.139603235e-12
-6.361171273e-12
-6.492278763e-12
-6.534865848e-12
-6.492215106e-12
-6.368771134e-12
-6.169935701e-12
-5.901844335e-12
-5.571132861e-12
-5.184704226e-12
-4.749507477e-12
-4.272340747e-12
-3.759689323e-12
-3.217607519e-12
-2.651649503e-12
-2.066850965e-12
-1.46775878e-12
-8.585022541e-13
-2.428965795e-13
3.754336296e-13
9.92923226e-13
1.605940683e-12
2.210679085e-12
2.803073048e-12
3.378748513e-12
3.933009007e-12
4.460859377e-12
4.957065205e-12
5.416243723e-12
5.832980423e-12
6.2019643e-12
6.518133942e-12
6.776826419e-12
6.97392133e-12
7.105972327e-12
7.170320121e-12
7.165181245e-12
7.089708946e-12
6.944023637e-12
6.729212332e-12
6.447298288e-12
6.101183599e-12
5.694569201e-12
5.231857812e-12
4.718046116e-12
4.15861279e-12
3.559408445e-12
2.926552665e-12
2.266342146e-12
1.585172101e-12
8.894712121e-13
1.856491897e-13
-5.199461385e-13
-1.221065392e-12
-1.911592097e-12
-2.585578651e-12
-3.23728685e-12
-3.861234863e-12
-4.452250921e-12
-5.005532673e-12
-5.516709628e-12
-5.98190543e-12
-6.397795788e-12
-6.76165793e-12
-7.071408052e-12
-7.325624156e-12
-7.523552753e-12
-7.665099572e-12
-7.750805568e-12
-7.781810794e-12
-7.759809614e-12
-7.687000945e-12
-7.566037283e-12
-7.399975471e-12
-7.192231524e-12
-6.946540045e-12
-6.666918092e-12
-6.357631201e-12
-6.023158987e-12
-5.668156364e-12
-5.297406493e-12
-4.915761957e-12
-4.528070914e-12
-4.139087387e-12
-3.753365521e-12
-3.375140364e-12
-3.008199436e-12
-2.655751722e-12
-2.320301618e-12
-2.00353707e-12
-1.706241057e-12
-1.428235714e-12
-1.168366092e-12
-9.245301216e-13
-6.937568655e-13
-4.723339915e-13
-2.559797946e-13
-4.005395673e-14
1.80204194e-13
4.094218083e-13
6.518384221e-13
9.110668822e-13
1.189884953e-12
1.490071419e-12
1.812299058e-12
2.156091825e-12
2.519850688e-12
2.90094699e-12
3.295877212e-12
3.700468551e-12
4.110120033e-12
4.520060895e-12
4.925606766e-12
5.322393375e-12
5.70656909e-12
6.074932152e-12
6.425001908e-12
6.755020325e-12
7.063886042e-12
7.351030145e-12
7.616247982e-12
7.859505637e-12
8.080742334e-12
8.279689633e-12
8.455726469e-12
8.607785408e-12
8.734318427e-12
8.833326531e-12
8.902448887e-12
8.939103218e-12
8.940664083e-12
8.904663468e-12
8.828997541e-12
8.712124669e-12
8.553241173e-12
8.352424742e-12
8.110737846e-12
7.830285195e-12
7.514219392e-12
7.166691592e-12
6.79274033e-12
6.398114604e-12
5.989028394e-12
5.571846271e-12
5.152709971e-12
4.737121841e-12
4.329517098e-12
3.932866819e-12
3.548366583e-12
3.175272172e-12
2.810942991e-12
2.451142938e-12
2.090628192e-12
1.72401596e-12
1.346885301e-12
9.570135371e-13
5.556024802e-13
1.483066525e-13
-2.541461713e-13
-6.359544397e-13
-9.770432397e-13
-1.254783919e-12
-1.446652705e-12
-1.533723182e-12
-1.504744809e-12
-1.360413227e-12
-1.117308207e-12
-8.108825635e-13
-4.968480365e-13
-2.503427177e-13
-1.623860716e-13
-3.333430737e-13
-8.634092598e-13
-1.840490726e-12
-3.326246546e-12
-5.341452618e-12
-7.852194745e-12
-1.075865163e-11
-1.388835437e-11
-1.699577774e-11
-1.976997718e-11
-2.185177439e-11
-2.286210157e-11
-2.244296047e-11
-2.031379458e-11
-1.63384906e-11
-1.059680916e-11
-3.3630952e-12
5.11024081e-12
1.039245102e-11
1.106210852e-11
1.163715655e-11
1.219104716e-11
1.273995641e-11
1.328654803e-11
1.382947479e-11
1.436709256e-11
1.489781368e-11
1.54205007e-11
1.593431054e-11
1.643850478e-11
1.693241118e-11
1.74152671e-11
1.788627711e-11
1.834461866e-11
1.878938328e-11
1.921963132e-11
1.963437897e-11
2.003261834e-11
2.041328368e-11
2.077523331e-11
2.111732226e-11
2.143832246e-11
2.173699446e-11
2.201194667e-11
2.226181871e-11
2.24851238e-11
2.268036283e-11
2.284588234e-11
2.298002836e-11
2.308100225e-11
2.314695376e-11
2.317593646e-11
2.31658604e-11
2.311458447e-11
2.301983865e-11
2.287920477e-11
2.269017479e-11
2.245010114e-11
2.215617865e-11
2.180545847e-11
2.139482627e-11
2.092103128e-11
2.038060183e-11
1.976989058e-11
1.908507973e-11
1.832210647e-11
1.747668158e-11
1.65443176e-11
1.552023668e-11
1.439942744e-11
1.317656717e-11
1.184608305e-11
1.040206373e-11
8.838274683e-12
7.148132416e-12
5.324693535e-12
3.360644197e-12
1.248264135e-12
-1.020620431e-12
-3.454580669e-12
-6.062705429e-12
-8.854532862e-12
-1.184015797e-11
-1.5030169e-11
-1.843577254e-11
-2.206875489e-11
-2.594150433e-11
-3.006711174e-11
-3.445930825e-11
-3.913256109e-11
-4.410206378e-11
-4.938384437e-11
-5.499467243e-11
-6.095224583e-11
-6.727507377e-11
-7.398263872e-11
-8.109535168e-11
-8.863464902e-11
-9.662298275e-11
-1.050838826e-10
-1.140420265e-10
-1.235231679e-10
-1.335543638e-10
-1.441638198e-10
-1.553810918e-10
-1.672370181e-10
-1.797637908e-10
-1.92995053e-10
-2.069658746e-10
-2.217128111e-10
-2.372739738e-10
-2.536890316e-10
-2.709992762e-10
-2.892476762e-10
-3.084788569e-10
-3.287392175e-10
-3.500769115e-10
-3.725419134e-10
-3.961860456e-10
-4.210629789e-10
-4.472283566e-10
-4.747396846e-10
-5.036565068e-10
-5.340403364e-10
-5.659546655e-10
-5.994650744e-10
-6.346391813e-10
-6.715466601e-10
-7.102592767e-10
-7.508508828e-10
-7.933973933e-10
-8.379768482e-10
-8.846693423e-10
-9.335570692e-10
-9.847242373e-10
-1.038257187e-09
-1.094244177e-09
-1.152775518e-09
-1.213943455e-09
-1.277842166e-09
-1.344567694e-09
-1.4142179e-09
-1.486892444e-09
-1.562692624e-09
-1.641721456e-09
-1.724083443e-09
-1.809884635e-09
-1.899232422e-09
-1.992235511e-09
-2.089003819e-09
-2.189648338e-09
-2.29428108e-09
-2.403014861e-09
-2.515963236e-09
-2.633240416e-09
-2.754961017e-09
-2.881239998e-09
-3.012192524e-09
-3.147933694e-09
-3.288578515e-09
-3.434241649e-09
-3.585037323e-09
-3.741079027e-09
-3.902479482e-09
-4.069350299e-09
-4.241801937e-09
-4.419943446e-09
-4.603882229e-09
-4.793723931e-09
-4.989572151e-09
-5.19152836e-09
-5.399691559e-09
-5.614158203e-09
-5.835021905e-09
-6.062373285e-09
-6.296299804e-09
-6.536885462e-09
-6.784210715e-09
-7.038352237e-09
-7.299382706e-09
-7.567370732e-09
-7.842380494e-09
-8.124471771e-09
-8.413699719e-09
-8.710114591e-09
-9.013761802e-09
-9.324681631e-09
-9.64290919e-09
-9.968474316e-09
-1.030140134e-08
-1.064170921e-08
-1.098941128e-08
-1.134451525e-08
-1.170702316e-08
-1.207693146e-08
-1.245423077e-08
-1.283890611e-08
-1.323093687e-08
-1.363029674e-08
-1.403695395e-08
-1.44508713e-08
-1.487200621e-08
-1.530031086e-08
-1.573573255e-08
-1.617821353e-08
-1.662769155e-08
-1.708409985e-08
-1.754736754e-08
-1.801741992e-08
-1.849417859e-08
-1.897756207e-08
-1.946748588e-08
-1.99638632e-08
-2.046660517e-08
-2.097562126e-08
-2.149081993e-08
-2.201210907e-08
-2.253939651e-08
-2.307259062e-08
-2.3611601e-08
-2.415633893e-08
-2.470671844e-08
-2.52626564e-08
-2.582407386e-08
-2.639089657e-08
-2.69630557e-08
-2.754048884e-08
-2.812314092e-08
-2.871096478e-08
-2.930392273e-08
-2.990198679e-08
-3.050514041e-08
-3.111337897e-08
-3.172671113e-08
-3.234516016e-08
-3.296876461e-08
-3.359757987e-08
-3.423167921e-08
-3.487115529e-08
-3.551612127e-08
-3.61667121e-08
-3.68230861e-08
-3.748542626e-08
-3.815394175e-08
-3.882886924e-08
-3.951047474e-08
-4.019905499e-08
-4.089493882e-08
-4.15984893e-08
-4.231010524e-08
-4.303022257e-08
-4.375931667e-08
-4.449790358e-08
-4.524654234e-08
-4.600583658e-08
-4.677643654e-08
-4.755904112e-08
-4.835439964e-08
-4.916331397e-08
-4.99866408e-08
-5.082529362e-08
-5.168024478e-08
-5.255252783e-08
-5.344324003e-08
-5.435354406e-08
-5.528467061e-08
-5.623792146e-08
-5.721467055e-08
-5.821636765e-08
-5.924454069e-08
-6.030079782e-08
-6.138683048e-08
-6.250441628e-08
-6.365542162e-08
-6.484180387e-08
-6.606561527e-08
-6.732900425e-08
-6.863421759e-08
-6.998360109e-08
-7.137957324e-08
-7.282497231e-08
-7.431280551e-08
-7.585628775e-08
-7.746554773e-08
-7.91558793e-08
-8.09048658e-08
-8.271541926e-08
-8.459096007e-08
-8.653503875e-08
-8.855138363e-08
-9.064389452e-08
-9.281665367e-08
-9.50739335e-08
-9.74202063e-08
-9.986009363e-08
-1.024010633e-07
-1.050882553e-07
-1.07889781e-07
-1.10810398e-07
-1.138559551e-07
-1.170221539e-07
-1.203167641e-07
-1.237530251e-07
-1.273372719e-07
-1.310759438e-07
-1.349757862e-07
-1.390438062e-07
-1.432872687e-07
-1.477137058e-07
-1.523309246e-07
-1.571470165e-07
-1.621703718e-07
-1.674096874e-07
-1.728739818e-07
-1.785726089e-07
-1.845152695e-07
-1.907120279e-07
-1.971733281e-07
-2.03910009e-07
-2.109333255e-07
-2.182549655e-07
-2.258870754e-07
-2.338422801e-07
-2.421337124e-07
-2.507750401e-07
-2.597804986e-07
-2.691649277e-07
-2.789438102e-07
-2.891333198e-07
-2.997503709e-07
-3.108126788e-07
-3.22338826e-07
-3.343483434e-07
-3.468617973e-07
-3.59900898e-07
-3.734886215e-07
-3.876493537e-07
-4.024090642e-07
-4.177955018e-07
-4.338384393e-07
-4.505699517e-07
-4.680247579e-07
-4.862406163e-07
-5.052588125e-07
-5.251247281e-07
-5.45888532e-07
-5.676060025e-07
-5.903395215e-07
-6.141592621e-07
-6.391446208e-07
-6.653859369e-07
-6.929865631e-07
-7.220653609e-07
-7.527596995e-07
-7.852290744e-07
-8.196594648e-07
-8.562685794e-07
-8.953121937e-07
-9.370917596e-07
-9.819636108e-07
-1.03035003e-06
-1.082752601e-06
-1.1397683e-06
-1.202108883e-06
-1.27062425e-06
-1.3463306e-06
-1.430444349e-06
-1.524422994e-06
-1.630014333e-06
-1.74931574e-06
-1.884845559e-06
-2.039629044e-06
-2.21730183e-06
-2.422234469e-06
-2.659682303e-06
-2.935965784e-06
-3.258687393e-06
-3.636992549e-06
-4.081883296e-06
-4.606595498e-06
-5.227052112e-06
-5.962407925e-06
-6.835703907e-06
-7.874653175e-06
-9.112584579e-06
-1.058957539e-05
-1.235381047e-05
-1.446321263e-05
-1.698739764e-05
-2.001001778e-05
-2.363156978e-05
-2.797275805e-05
-3.317852068e-05
-3.942284741e-05
-4.691454065e-05
-5.590410231e-05
-6.669195881e-05
-7.963828019e-05
-9.517469104e-05
-0.0001138182277
-0.0001361879571
-0.0001630247458
-0.0001952147473
-0.0002338172782
-0.0002800978526
-0.0003355672713
-0.0004020278004
-0.0004816276123
-0.0005769248404
-0.0006909627481
-0.0008273577103
-0.0009904018633
-0.001185182434
-0.001417719896
-0.001695127177
-0.00202579208
-0.002419585021
-0.002888093758
-0.003444886289
-0.00410580208
-0.00488927048
-0.005816653109
-0.006912604419
-0.008205440825
-0.009727504258
-0.01151550423
-0.01361078743
-0.01605955504
-0.01891291008
-0.02222672911
-0.02606127074
-0.03048043283
-0.03555063137
-0.04133906218
-0.04791143106
-0.05532893658
-0.06364448695
-0.07289810752
-0.08311155467
-0.09428221542
-0.1063764569
-0.1193226841
-0.1330044613
-0.1472541489
-0.1618475885
-0.1765003692
-0.1908662973
-0.204538487
-0.2170534638
-0.227898409
-0.2365213272
-0.2423439783
-0.2447760444
-0.2432303056
-0.2371370375
-0.2259559745
-0.209188062
-0.1863802214
-0.1571337008
-0.1211079927
-0.07803031435
-0.02772220289
0.02981392982
0.09416728506
0.1639810197
0.2435983396
0.3235966523
0.4497547311
0.5640176145
0.6556975658
0.5893107288
0.7498718092
0.8581486762
0.9414125435
1.009314428
1.061440873
1.094494013
1.095203415
1.059103825
0.9826507091
0.7611067496
0.5648926944
-0.1154851669
-0.6565658248
-1.439011816
-2.464283669
-3.678240886
-5.252315335
-7.089517545
-9.123203114
-10.55303731
-12.65387199
-14.5693843
-16.14675933
-17.24692498
-17.80475091
-17.73876232
-16.59801701
-15.39161132
-13.6634222
-11.8997445
-10.16348564
-8.568914286
-7.172721546
-6.013986713
-5.01840316
-4.049838543
-3.253054979
-2.601974007
-2.05272795
-1.629878368
-1.307188574
-1.067406303
-0.886304455
-0.738375058
-0.5723477057
-0.4419732544
-0.3579797604
-0.2864040805
-0.2272895838
-0.1796938734
-0.1420624322
-0.1126673481
-0.08951104578
-0.07176684746
-0.05793270652
-0.04710802458
-0.03859359288
-0.03185303836
-0.02647791031
-0.02215826217
-0.0186590789
-0.01580192811
-0.01345104971
-0.01150239244
-0.009875981075
-0.008509906517
-0.007355876165
-0.006375913514
-0.005539903212
-0.004823762513
-0.004208070449
-0.003677037835
-0.003217728468
-0.002819466061
-0.002473379048
-0.002172049882
-0.001909241374
-0.001679681776
-0.001478894609
-0.001303062794
-0.001148919314
-0.001013658564
-0.0008948639582
-0.0007904484181
-0.0006986051404
-0.0006177666349
-0.0005465704562
-0.0004838303928
-0.00042851213
-0.0003797126054
-0.000336642426
-0.0002986108391
-0.0002650128437
-0.0002353181042
-0.0002090613891
-0.0001858343038
-0.0001652781288
-0.0001470776015
-0.0001309555104
-0.0001166679868
-0.0001040003995
-9.27637711e-05
-8.279164637e-05
-7.393735342e-05
-6.60716061e-05
-5.9080404e-05
-5.286319172e-05
-4.733124455e-05
-4.240625177e-05
-3.801907296e-05
-3.410864543e-05
-3.06210242e-05
-2.750853785e-05
-2.472904617e-05
-2.224528688e-05
-2.00243007e-05
-1.803692505e-05
-1.625734813e-05
-1.466271603e-05
-1.323278648e-05
-1.194962362e-05
-1.079732883e-05
-9.761803436e-06
-8.830539273e-06
-7.992434034e-06
-7.237628274e-06
-6.557361604e-06
-5.943845769e-06
-5.390152621e-06
-4.890115246e-06
-4.438240666e-06
-4.029632778e-06
-3.659924319e-06
-3.325216777e-06
-3.02202735e-06
-2.747242067e-06
-2.498074414e-06
-2.27202875e-06
-2.066867853e-06
-1.880584934e-06
-1.711377483e-06
-1.55762555e-06
-1.417871781e-06
-1.290803985e-06
-1.175239593e-06
-1.070111937e-06
-9.744580579e-07
-8.874079084e-07
-8.081747511e-07
-7.360466304e-07
-6.703787856e-07
-6.105868964e-07
-5.561410613e-07
-5.065604283e-07
-4.614083967e-07
-4.202883293e-07
-3.828397124e-07
-3.487347164e-07
-3.176751085e-07
-2.893894796e-07
-2.63630751e-07
-2.40173928e-07
-2.188140757e-07
-1.993644921e-07
-1.816550566e-07
-1.655307366e-07
-1.508502353e-07
-1.374847658e-07
-1.253169392e-07
-1.142397545e-07
-1.041556809e-07
-9.497582327e-08
-8.661916197e-08
-7.901186137e-08
-7.208663912e-08
-6.578219152e-08
-6.004266906e-08
-5.481719807e-08
-5.005944418e-08
-4.572721367e-08
-4.178208945e-08
-3.818909867e-08
-3.491640914e-08
-3.193505196e-08
-2.921866827e-08
-2.674327794e-08
-2.448706822e-08
-2.243020087e-08
-2.055463602e-08
-1.88439713e-08
-1.728329515e-08
-1.585905286e-08
-1.455892441e-08
-1.337171306e-08
-1.228724374e-08
-1.129627043e-08
-1.03903918e-08
-9.561974317e-09
-8.804082238e-09
-8.110413836e-09
-7.475243412e-09
-6.893368496e-09
-6.360061803e-09
-5.871027587e-09
-5.422361938e-09
-5.010516678e-09
-4.632266588e-09
-4.284679639e-09
-3.965089902e-09
-3.671073032e-09
-3.400423938e-09
-3.15113657e-09
-2.921385535e-09
-2.709509445e-09
-2.513995802e-09
-2.333467281e-09
-2.166669293e-09
-2.012458701e-09
-1.869793608e-09
-1.737724054e-09
-1.615383627e-09
-1.501981819e-09
-1.39679711e-09
-1.299170705e-09
-1.208500824e-09
-1.124237555e-09
-1.045878165e-09
-9.729628541e-10
-9.050708989e-10
-8.418171537e-10
-7.828488805e-10
-7.278428567e-10
-6.765027641e-10
-6.285568124e-10
-5.837555726e-10
-5.418700226e-10
-5.026897552e-10
-4.660213636e-10
-4.31686962e-10
-3.995228452e-10
-3.693782709e-10
-3.411143456e-10
-3.14603012e-10
-2.897261326e-10
-2.663746488e-10
-2.444478133e-10
-2.238524984e-10
-2.045025564e-10
-1.863182436e-10
-1.692256891e-10
-1.531564125e-10
-1.380468861e-10
-1.238381293e-10
-1.104753448e-10
-9.790757734e-11
-8.608741415e-11
-7.497069954e-11
-6.451627848e-11
-5.46857653e-11
-4.544332518e-11
-3.675547888e-11
-2.859092323e-11
-2.092036538e-11
-1.371637259e-11
-6.953230918e-12
-6.068220342e-13
5.345496168e-12
1.092499634e-11
1.615167949e-11
2.10443654e-11
2.562077459e-11
2.989760809e-11
3.38906136e-11
3.761465232e-11
4.108375848e-11
4.431119383e-11
4.730949817e-11
5.009053589e-11
5.266554006e-11
5.504515089e-11
5.723945461e-11
5.925801446e-11
6.110990533e-11
6.280374169e-11
6.434770372e-11
6.574956464e-11
6.70167126e-11
6.815617286e-11
6.917462764e-11
7.007843597e-11
7.087365023e-11
7.156603323e-11
7.216107312e-11
7.266399798e-11
7.30797893e-11
7.341319411e-11
7.366873743e-11
7.385073274e-11
7.396329283e-11
7.401033913e-11
7.399561161e-11
7.392267647e-11
7.379493553e-11
7.361563271e-11
7.338786219e-11
7.311457505e-11
7.279858599e-11
7.244257886e-11
7.20491138e-11
7.162063114e-11
7.115945824e-11
7.066781368e-11
7.014781202e-11
6.960146877e-11
6.90307045e-11
6.843734887e-11
6.782314457e-11
6.718975138e-11
6.653874937e-11
6.587164246e-11
6.518986179e-11
6.449476862e-11
6.378765773e-11
6.306975952e-11
6.234224348e-11
6.160622054e-11
6.086274547e-11
6.011281929e-11
5.935739173e-11
5.85973632e-11
5.783358717e-11
5.706687195e-11
5.629798265e-11
5.552764304e-11
5.475653782e-11
5.398531315e-11
5.321457967e-11
5.244491302e-11
5.167685595e-11
5.09109195e-11
5.014758447e-11
4.938730263e-11
4.863049825e-11
4.787756905e-11
4.712888759e-11
4.638480221e-11
4.564563829e-11
4.491169923e-11
4.418326734e-11
4.346060492e-11
4.27439552e-11
4.203354313e-11
4.132957624e-11
4.063224563e-11
3.994172636e-11
3.92581787e-11
3.858174854e-11
3.791255564e-11
3.725074494e-11
3.659641056e-11
3.594964818e-11
3.531054075e-11
3.467915973e-11
3.405556685e-11
3.343981674e-11
3.28319544e-11
3.223201619e-11
3.164003016e-11
3.105601655e-11
3.047998819e-11
2.991195103e-11
2.935190444e-11
2.879984164e-11
2.825575002e-11
2.771961154e-11
2.719140289e-11
2.6671096e-11
2.615865817e-11
2.56540525e-11
2.515723799e-11
2.466816991e-11
2.41868e-11
2.371307675e-11
2.324694553e-11
2.278834893e-11
2.23372268e-11
2.189351662e-11
2.145715357e-11
2.102807071e-11
2.06061992e-11
2.019146844e-11
1.97838062e-11
1.938313879e-11
1.898939116e-11
1.860248713e-11
1.822234936e-11
1.784889963e-11
1.748205882e-11
1.712174713e-11
1.676788408e-11
1.642038868e-11
1.60791795e-11
1.574417475e-11
1.541529233e-11
1.509245002e-11
1.477556541e-11
1.446455608e-11
1.415933961e-11
1.385983365e-11
1.3565956e-11
1.327762466e-11
1.299475784e-11
1.271727408e-11
1.244509225e-11
1.217813159e-11
1.191631179e-11
1.165955298e-11
1.140777579e-11
1.116090139e-11
1.091885152e-11
1.068154851e-11
1.044891528e-11
1.022087543e-11
9.997353211e-12
9.778273563e-12
9.563562141e-12
9.353145326e-12
9.146950214e-12
8.944904709e-12
8.746937435e-12
8.552977837e-12
8.362956127e-12
8.176803339e-12
7.994451319e-12
7.815832721e-12
7.640881026e-12
7.469530569e-12
7.301716497e-12
7.137374804e-12
6.97644233e-12
6.818856768e-12
6.664556641e-12
6.51348133e-12
6.365571061e-12
6.220766904e-12
6.079010774e-12
5.940245438e-12
5.804414488e-12
5.671462366e-12
5.541334346e-12
5.413976527e-12
5.289335845e-12
5.167360044e-12
5.047997695e-12
4.93119818e-12
4.816911678e-12
4.70508918e-12
4.59568246e-12
4.488644087e-12
4.383927404e-12
4.281486535e-12
4.181276363e-12
4.083252535e-12
3.987371447e-12
3.893590244e-12
3.801866805e-12
3.712159733e-12
3.624428363e-12
3.538632732e-12
3.454733586e-12
3.372692373e-12
3.292471227e-12
3.214032952e-12
3.137341043e-12
3.062359645e-12
2.989053568e-12
2.917388258e-12
2.847329818e-12
2.778844969e-12
2.711901056e-12
2.646466049e-12
2.582508515e-12
2.519997631e-12
2.458903152e-12
2.399195431e-12
2.340845391e-12
2.283824522e-12
2.228104878e-12
2.173659069e-12
2.120460249e-12
2.068482114e-12
2.01769889e-12
1.968085335e-12
1.919616721e-12
1.872268839e-12
1.826017982e-12
1.780840948e-12
1.736715029e-12
1.693618007e-12
1.65152815e-12
1.610424201e-12
1.570285381e-12
1.531091376e-12
1.492822341e-12
1.455458887e-12
1.418982083e-12
1.383373446e-12
1.348614944e-12
1.314688986e-12
1.281578419e-12
1.249266526e-12
1.217737025e-12
1.186974055e-12
1.156962183e-12
1.127686392e-12
1.09913208e-12
1.071285051e-12
1.044131517e-12
1.017658083e-12
9.918519598e-13
9.667001096e-13
9.421905178e-13
9.183113429e-13
8.950511408e-13
8.723988801e-13
8.503440131e-13
8.28876527e-13
8.079870161e-13
7.87666783e-13
7.679080732e-13
7.487043026e-13
7.30050345e-13
7.119428145e-13
6.943802596e-13
6.773631985e-13
6.608934654e-13
6.449729787e-13
6.295997319e-13
6.147638895e-13
6.004291535e-13
5.865393614e-13
5.729265163e-13
5.593851161e-13
5.454574177e-13
5.304346538e-13
5.132282777e-13
4.923070265e-13
2.71839759e-13
2.76222325e-13
1.876630198e-13
1.265535767e-13
8.486343048e-14
5.644220924e-14
3.718935031e-14
2.425205737e-14
1.563756254e-14
9.958398451e-15
6.254540682e-15
3.867024263e-15
2.347603768e-15
1.394314724e-15
8.058104818e-16
4.492799277e-16
2.381213159e-16
1.16559585e-16
4.915614707e-17
1.373060111e-17
-3.363260729e-18
-1.035404872e-17
-1.20843022e-17
-1.131727683e-17
-9.565734908e-18
-7.609182768e-18
-5.810808351e-18
-4.3075678e-18
-3.121191994e-18
-2.220877578e-18
-1.557067218e-18
-1.078436271e-18
-7.394408243e-19
-5.028327836e-19
-3.396781001e-19
-2.282995613e-19
-1.528918654e-19
-1.021748337e-19
-6.823630267e-20
-4.560571089e-20
-3.054578506e-20
-2.052888762e-20
-1.385953654e-20
-9.408065076e-21
-6.425529937e-21
-4.417124756e-21
-3.056519367e-21
-2.128527425e-21
-1.491157377e-21
-1.050196052e-21
-7.430193397e-22
-5.276721611e-22
-3.758377044e-22
-2.682870521e-22
-1.917646837e-22
-1.371343634e-22
-9.809280177e-23
-7.01642638e-23
-5.013916885e-23
-3.580824735e-23
-2.552326074e-23
-1.817444574e-23
-1.29100752e-23
-9.165721705e-24
-6.488591511e-24
-4.589187548e-24
-3.238524221e-24
-2.283155272e-24
-1.608517141e-24
-1.132590156e-24
-7.990539109e-25
-5.62815398e-25
-3.960599058e-25
-2.807418517e-25
-1.912398683e-25
-1.430187897e-25
-1.063179316e-25
-7.502343004e-26
-5.94865493e-26
-4.687649713e-26
-3.37577295e-26
-2.973815601e-26
-2.294110027e-26
-1.467401518e-26
-1.379270667e-26
-1.316021415e-26
-1.11061088e-26
-9.325678312e-27
-9.251720926e-27
-7.042949704e-27
-4.608954057e-27
-4.710843509e-27
-3.547309959e-27
-3.258888808e-27
-2.537446231e-27
-2.023681743e-27
-1.59366237e-27
-1.144015143e-27
-8.431165281e-28
-5.869466412e-28
-4.798532696e-28
-1.890731212e-28
3.611590914e-29
1.854302554e-29
8.710891879e-29
7.20442445e-29
1.379802942e-28
2.423762556e-28
2.859414391e-28
-4.894435571e-29
7.663911244e-29
1.422546738e-28
8.159896724e-29
2.513632828e-29
8.191023061e-30
-2.213677145e-29
-1.200523077e-29
9.316056275e-30
3.328115741e-29
-4.641625691e-29
-1.716867955e-29
-1.272343769e-28
-1.58463772e-30
-1.207783802e-28
-1.560003722e-28
-1.321559738e-28
-4.362525472e-29
-1.233617525e-28
-2.821389642e-29
-4.726743831e-29
-6.514395795e-29
3.251413053e-29
-6.548607711e-29
-3.099153831e-29
1.500082936e-28
1.352799673e-28
7.60304545e-29
1.247438836e-28
2.502835796e-28
-1.228461802e-28
-3.591294188e-29
-1.633696356e-28
1.876623673e-28
4.720505203e-29
1.320672846e-28
1.379329673e-28
6.212936375e-29
8.600662009e-29
3.958241797e-29
-1.296225118e-29
4.615630625e-29
-4.92111829e-29
5.388735362e-30
1.95344008e-28
1.579580879e-28
2.529117462e-28
3.298047253e-29
4.24751055e-28
1.213050228e-28
1.993156877e-28
3.307664112e-28
-3.326862118e-29
1.021420297e-28
-5.801785539e-30
1.758795578e-28
2.443671594e-29
-1.581212809e-28
-1.284403574e-28
1.33381252e-29
1.615453211e-28
6.938432805e-29
4.175653567e-29
-5.016798592e-29
-6.246549843e-29
-7.370457249e-29
1.035411612e-28
7.948052059e-29
9.151654444e-29
-3.586110764e-29
1.957500868e-29
-3.302539276e-29
1.177923559e-28
5.798467927e-29
-4.431528725e-31
5.545804134e-29
-6.386771945e-29
-6.397261431e-29
1.336548466e-29
6.098946939e-29
-5.777922647e-29
-3.006555493e-29
7.401056745e-29
-9.167098139e-29
-6.646239796e-30
1.139197356e-29
-5.311126912e-29
6.572845582e-29
-9.889024726e-30
4.358018011e-29
-4.356989105e-29
-1.420037213e-28
-1.060758034e-28
7.65080017e-30
1.181178829e-29
6.78422945e-29
5.384854128e-29
-2.273172349e-29
3.375614856e-29
-1.115628136e-30
1.340318546e-29
-2.989618468e-29
6.974816873e-29
-3.728972526e-29
-4.75568235e-29
2.742783929e-29
1.137200295e-28
-1.457419761e-30
9.107630177e-29
4.322719631e-29
2.474694987e-29
3.570474339e-29
1.000133834e-28
7.768063749e-30
7.272377817e-29
4.110754386e-29
-8.881543843e-30
5.677759896e-30
2.759974128e-30
2.739103923e-29
-1.851003896e-29
5.410639575e-29
6.665403056e-29
5.965384282e-29
-1.879939281e-28
-8.61949984e-29
4.828126064e-29
4.31973176e-29
-3.574795514e-29
-5.777939984e-29
-9.348881914e-29
-5.542894911e-29
-1.156619259e-28
-1.290177571e-28
-1.303981527e-28
-1.28392432e-28
-2.436538352e-28
-1.165684367e-28
1.477853747e-28
-1.231413248e-28
-1.037968815e-28
)
;

boundaryField
{
    inlet
    {
        type            calculated;
        value           uniform 0;
    }
    outlet
    {
        type            calculated;
        value           uniform -9.99250102e-29;
    }
    wall
    {
        type            empty;
    }
}


// ************************************************************************* //
