/*--------------------------------*- C++ -*----------------------------------*\
  =========                 |
  \\      /  F ield         | OpenFOAM: The Open Source CFD Toolbox
   \\    /   O peration     | Website:  https://openfoam.org
    \\  /    A nd           | Version:  7
     \\/     M anipulation  |
\*---------------------------------------------------------------------------*/
FoamFile
{
    version     2.0;
    format      ascii;
    class       volScalarField;
    location    "0.000558243009";
    object      ddt0(rho,CH2(S));
}
// * * * * * * * * * * * * * * * * * * * * * * * * * * * * * * * * * * * * * //

dimensions      [1 -3 -1 0 0 0 0];

internalField   nonuniform List<scalar> 
1500
(
-1.471440148e-37
1.258007922e-34
3.331167315e-34
5.441476735e-33
-2.187474441e-35
2.172591478e-33
-9.30267706e-35
1.437252957e-34
4.464952639e-33
2.852220475e-36
-2.556339673e-35
-5.788764857e-34
-4.578565186e-33
-4.455274449e-34
-1.079124335e-34
-6.146134936e-34
-4.782082776e-33
-1.647507731e-34
-4.177650754e-34
5.31071195e-34
1.299527136e-33
3.481498248e-33
2.026568748e-34
-2.64775957e-33
3.462439296e-33
4.343279599e-33
6.4188929e-33
-1.414989901e-34
-4.523148022e-36
-3.078007402e-33
-6.492358987e-34
-1.29334174e-37
-5.082903325e-34
1.817297312e-33
-3.27481204e-34
2.216833709e-34
-4.011726199e-34
-2.684796999e-36
-4.163423659e-33
-2.507845365e-34
-3.765322195e-33
1.522892227e-34
-7.929082284e-34
-9.78583275e-34
-1.255092786e-33
-2.915058199e-35
3.851302647e-33
1.574466156e-34
1.895604216e-33
7.65643776e-35
4.431238684e-33
1.30770004e-34
1.792899256e-33
1.311148122e-34
-5.456604313e-34
-4.000962075e-34
-1.021661554e-33
-1.031967948e-33
-4.423334455e-35
1.93052686e-35
-1.040864754e-33
-4.624002279e-34
2.438284032e-33
-1.272860931e-33
6.164727559e-33
2.430538972e-33
-2.972725833e-33
4.938656287e-33
-2.266064217e-34
1.459431012e-33
3.955777462e-33
-1.714955173e-34
6.117698812e-36
6.448017615e-33
-6.863978812e-34
-4.814795343e-36
-1.165671967e-33
3.209350133e-37
2.371721438e-33
-1.237281767e-33
-1.660684393e-34
-3.175092666e-33
2.261787669e-34
3.78024025e-33
-3.194451839e-33
-6.857916264e-34
-3.593486002e-34
9.797624929e-35
4.027583151e-37
-1.110027403e-35
2.160647551e-33
3.853926728e-34
-8.617131378e-34
-2.112623274e-34
1.914914686e-33
3.977673481e-33
-7.326569816e-34
-1.347275088e-33
1.522434794e-36
2.96974707e-33
-1.287985063e-33
-2.086635146e-33
9.74272617e-35
-8.535329286e-34
-7.232083861e-34
-6.6810066e-36
2.566230031e-34
-2.653378298e-33
4.806145444e-33
-4.895506037e-34
6.995994805e-33
1.377413563e-36
8.399233818e-34
-3.59809931e-33
6.601911956e-36
-2.781906582e-34
8.008158892e-33
-5.843039551e-34
2.40409433e-34
5.07120519e-33
-1.778604218e-33
1.102152734e-33
-1.418272389e-33
1.039982278e-33
3.841903978e-33
3.81406269e-33
5.308322601e-35
4.71903886e-33
-6.826119029e-33
3.511402759e-33
-2.54684465e-35
9.1203932e-36
-1.442410286e-37
2.29478493e-37
4.127521122e-34
3.961217545e-33
5.469385682e-35
-1.584418225e-33
4.904023444e-33
3.702617318e-34
2.188519464e-33
2.354408023e-33
4.657371615e-36
-4.269349953e-35
1.498823392e-36
9.541195758e-34
3.499070837e-33
1.606329912e-33
-3.333406672e-34
1.081030727e-34
1.90260378e-34
-3.69392976e-33
-1.914324928e-33
-3.876992093e-33
-1.129799462e-33
1.530316637e-33
-3.510144014e-33
-3.067027455e-33
3.082525694e-36
-4.407731468e-33
1.583339798e-34
-3.592811648e-34
1.059028338e-33
5.720895796e-33
-3.1369765e-34
8.563473258e-37
-1.605111594e-33
4.952840935e-35
9.505884254e-34
4.693813281e-33
-5.858322495e-34
5.495437504e-33
-3.392271814e-33
-3.788584563e-36
-4.820008375e-33
2.656878494e-33
-2.105547868e-33
2.072132059e-33
-1.226129899e-33
-1.186213474e-33
-1.066151401e-33
4.514030179e-34
-4.482066528e-33
-1.462060215e-35
-1.090590818e-34
-2.723871587e-34
4.448466423e-33
-2.198900733e-34
3.411124913e-35
4.095570926e-37
2.346022589e-34
1.712574482e-33
-1.845269604e-34
9.03770745e-35
1.720701241e-34
-1.464943023e-33
4.989717325e-33
3.112503069e-33
8.324699515e-36
-8.997974226e-34
-1.762146871e-34
-2.452690821e-33
-9.748680219e-35
3.704459042e-36
4.633714818e-33
3.784423878e-33
-2.477879252e-33
-1.624426368e-33
-9.256765826e-35
-1.121307439e-33
3.889726697e-33
4.840642464e-33
-5.114929434e-34
4.602326979e-33
-4.507719428e-34
-3.632411547e-35
-5.153474578e-35
5.435354587e-34
-6.776413851e-34
-2.691136498e-33
-1.020861113e-33
-8.525536863e-34
1.012154926e-36
9.198956072e-34
-1.924933046e-36
1.537960293e-34
-3.525489428e-36
-1.012903215e-33
-5.576398493e-33
4.070020046e-33
-2.095971044e-33
-2.377607703e-33
4.424797652e-33
8.047447152e-33
1.57508327e-33
2.341036577e-34
2.581918053e-34
-4.661462592e-35
-9.556450057e-34
-2.029712337e-33
-7.425928479e-34
-2.246944858e-33
-3.504496994e-33
1.532712445e-36
6.014445438e-33
6.075393545e-34
-2.759242484e-33
-3.265920111e-33
1.444538614e-34
2.667681427e-34
1.479721263e-33
-6.944342619e-34
-5.455300196e-35
-4.293797084e-34
-4.645328805e-34
-4.486898502e-34
4.360029437e-34
-1.229285508e-33
-6.339042212e-34
-1.281162136e-34
2.179314337e-35
1.566589823e-35
7.88572275e-35
3.489916002e-34
1.86478764e-33
3.458637535e-34
-3.80699004e-34
-1.634065335e-33
2.740118805e-34
3.660591454e-34
5.481572246e-34
3.30596637e-33
1.200265477e-33
2.658959937e-33
6.740356251e-35
-9.910456296e-34
-3.605192799e-33
-4.004698937e-33
1.034858419e-33
-1.142224314e-33
-3.446580926e-34
-1.22075602e-33
-3.844810222e-34
-6.576948916e-34
-1.162756511e-33
-2.998371822e-33
-2.160565775e-33
1.824795867e-33
2.608712714e-34
-2.672127975e-34
-3.36656294e-33
-8.65809035e-34
-8.547152084e-34
4.318407961e-34
-1.172000302e-33
-7.429070512e-34
6.665747761e-34
2.562956495e-34
4.853475839e-34
2.329567694e-33
-2.509212592e-33
-6.63794392e-34
1.356499784e-33
1.15907255e-33
1.193774693e-33
2.594578683e-34
1.626155896e-34
3.96513977e-34
3.130828439e-33
2.013338601e-33
-1.976156725e-33
-5.10277381e-34
-1.195064457e-33
-4.458288436e-34
1.913060103e-35
9.462348921e-34
4.899581275e-33
4.520526115e-33
1.656553842e-33
3.843553229e-33
8.52117057e-34
-2.249574123e-34
-5.089838478e-34
6.667335747e-35
2.071568042e-33
2.960218045e-33
-3.0712386e-33
-1.36341236e-33
-6.593270621e-34
-4.602345362e-34
3.652919463e-36
-2.057747028e-33
-1.155734402e-33
-4.130915167e-34
6.030629224e-34
-9.469005757e-34
1.59243781e-33
-3.236086408e-33
-6.908835071e-33
-2.199753794e-33
-7.992318591e-34
-6.18581772e-34
-4.814825745e-34
-2.105696471e-33
-3.697649777e-33
3.378496504e-33
1.972698704e-34
1.954258803e-34
2.698938883e-34
-2.911479654e-33
1.722599333e-33
1.260560021e-33
3.343647886e-33
1.727145752e-35
-7.54199545e-34
-1.086862278e-34
6.979427315e-34
-7.933790197e-34
-4.354435743e-33
-2.565127805e-33
-1.522600535e-33
-1.487998076e-33
-7.992136732e-34
-1.905905305e-35
1.868273664e-33
-4.412074596e-34
3.324851688e-33
1.050530521e-33
6.084289207e-34
-1.440826674e-33
-7.444860645e-34
3.446940185e-34
2.340689683e-33
5.122266966e-34
1.30330361e-34
7.684280397e-35
8.425418717e-35
3.674114499e-34
1.847754707e-33
-4.859824809e-34
-5.166063205e-33
-5.059538092e-33
-6.488078298e-33
-4.870294378e-33
-3.196596669e-33
1.070874155e-33
-2.650014608e-34
-3.735138189e-33
-2.613280234e-33
-1.645853747e-33
-1.189639388e-34
-4.949342355e-34
-3.794848062e-34
-3.336102675e-34
-7.560395793e-34
-1.738269554e-33
-4.440372122e-33
-8.474296274e-34
2.211179477e-35
2.123432508e-33
-4.073563228e-33
5.135565679e-33
1.409430377e-33
-5.586694058e-34
5.897437902e-34
9.972242741e-35
7.030558196e-35
-3.480056883e-34
-3.951048505e-33
-9.938227168e-34
-1.336256198e-33
-6.939697729e-33
-8.031158051e-34
3.389569314e-33
-1.101941993e-33
9.943296695e-35
2.266676422e-34
-2.33151468e-33
-9.254863753e-33
-4.422033264e-34
7.073811035e-33
2.069804859e-33
6.663126509e-33
9.418189806e-33
3.423580638e-33
2.432414474e-33
8.269863645e-33
1.749837081e-33
-4.024633525e-34
-4.01591185e-34
-5.64614813e-34
-7.862318412e-33
-5.060581746e-33
-3.295746034e-34
1.961243738e-33
1.028930436e-32
4.518942015e-33
4.412500763e-33
1.905014905e-32
1.345404489e-33
-2.00874491e-34
-6.094475148e-35
3.715825869e-33
-1.376939691e-33
-3.85835121e-33
-2.359783315e-33
-1.090574267e-32
-3.890465289e-33
4.049862675e-34
1.938935875e-33
9.484968019e-33
3.529211861e-33
-3.982152462e-34
2.627902597e-34
-1.592308035e-32
-3.579259648e-33
8.020999554e-34
6.204875024e-33
5.199616896e-34
-2.251202305e-33
-1.166304815e-33
-3.437493359e-34
-2.051610471e-34
1.033090408e-33
9.444691577e-33
4.455862141e-33
1.356532705e-33
-5.423568455e-33
-1.387678126e-32
-8.422481653e-34
9.190109037e-33
2.99779147e-33
4.296651066e-33
1.50581988e-32
6.348625799e-33
4.831328429e-33
1.843953167e-32
9.95434322e-35
-1.777182359e-32
1.282120051e-32
2.475322546e-33
1.105057787e-33
-1.549148246e-33
4.275091119e-33
2.349007134e-32
5.313981839e-33
2.29771374e-33
5.757180842e-33
4.476780885e-33
1.841420051e-33
1.821175072e-32
4.207986208e-33
4.683119095e-33
4.225413003e-33
2.950246161e-32
6.345972514e-33
-3.926333902e-33
3.69082354e-32
1.60336779e-33
-2.787367834e-32
-6.5963276e-33
-4.560499281e-33
-5.701445621e-33
-2.60948502e-33
-1.566556216e-32
-3.753079849e-33
8.161747393e-33
-6.540317087e-34
1.156278844e-32
1.785401819e-32
1.694882833e-32
9.608809546e-33
8.148910046e-33
1.964301651e-33
-4.358541025e-33
-1.087217637e-33
-1.01071973e-34
-5.855648542e-33
-1.856759718e-32
-4.038800979e-33
6.276946845e-34
1.25607882e-32
4.638313202e-32
1.266002293e-32
1.626189282e-32
4.040134728e-33
-5.403405676e-33
-4.597336248e-32
-2.225906107e-32
-1.310231521e-32
-3.863767036e-32
-5.322883115e-33
1.027973613e-32
1.318029235e-32
-3.449075763e-32
-1.340752158e-32
-2.171888183e-32
1.96690144e-32
3.818945822e-32
1.407537797e-32
4.978539799e-34
3.626748829e-33
3.281774752e-32
9.939699991e-34
-2.077000677e-32
-2.107418054e-32
7.300380925e-32
9.021214033e-32
1.242368278e-32
-3.987943663e-32
-2.208179272e-32
-5.94769696e-33
3.954898602e-33
4.779766395e-33
-3.460939098e-33
-4.637017147e-33
4.114039877e-32
-1.899969663e-32
-1.531949519e-32
-1.161593225e-32
1.113133591e-31
-3.440822108e-32
1.412598774e-32
-7.00546501e-32
-9.371667196e-32
-1.558696767e-32
1.076608621e-31
-4.077294241e-33
-1.658613212e-32
-4.186480748e-32
-2.316055113e-33
4.434364039e-34
-4.277459303e-32
-1.236928389e-31
-2.325811733e-31
-7.825955962e-32
-4.6675117e-32
-5.098254213e-34
1.167319405e-31
2.523560626e-32
2.317464229e-32
1.20207733e-31
1.868797987e-32
-1.860453398e-32
2.741587748e-32
1.418136808e-31
-5.697059638e-32
-1.204925811e-31
9.927305187e-32
-4.643026279e-32
-1.871280791e-31
-1.104219902e-31
-4.466587145e-31
-3.00680573e-31
-8.507592656e-32
-1.327363513e-31
-6.859490654e-31
-5.825032116e-31
-4.622248688e-31
-1.112891699e-31
2.043989592e-31
1.568336552e-30
4.660068418e-31
6.724662586e-31
7.44519774e-32
-8.154399043e-31
-1.21971321e-30
-8.970654651e-31
-2.596550649e-30
-6.490832214e-30
1.085072887e-30
8.282069493e-31
1.605514994e-30
6.94419816e-30
5.519591051e-30
5.282919614e-30
5.242425511e-30
5.593849296e-30
1.504479984e-30
1.491059436e-30
3.140769311e-30
-9.580240739e-30
-2.456017431e-29
-3.577140908e-29
-2.455901268e-29
-5.361460974e-29
-3.277895036e-29
1.975249907e-28
1.205284815e-28
4.17669394e-28
2.689388984e-28
1.892438979e-28
6.64949009e-28
2.101896223e-28
1.170341126e-27
3.376243303e-29
-8.209756012e-28
-2.560788351e-27
4.06628751e-27
-1.707698644e-27
-8.823693528e-27
-2.7752125e-27
-2.036228475e-27
-6.293949221e-27
-4.354581552e-26
-2.919305783e-26
-2.725940099e-27
1.930663232e-26
-1.249881064e-26
-1.32031089e-26
2.711858091e-25
-3.627805654e-26
-1.585321567e-25
1.754960385e-27
-4.992167942e-25
-8.672158867e-25
-2.732068993e-25
-3.532745126e-25
-1.479905743e-24
-5.889510634e-24
-2.398044072e-23
-8.925817288e-23
-3.213529453e-22
-9.894765431e-22
-2.990594282e-21
-8.515140874e-21
-2.054525542e-20
-3.532568297e-20
1.253464412e-20
5.047129339e-19
3.18525549e-18
1.498414589e-17
6.070601744e-17
2.210336746e-16
7.325880815e-16
2.201937601e-15
5.86602294e-15
1.294918348e-14
1.804498228e-14
-2.452705153e-14
-3.376032541e-13
-1.812179529e-12
-7.618388788e-12
-2.812866045e-11
-9.507887561e-11
-3.001689699e-10
-8.95249423e-10
-2.540822045e-09
-6.896828656e-09
-1.79722566e-08
-4.509405871e-08
-1.092086586e-07
-2.558086086e-07
-5.805996636e-07
-1.278895622e-06
-2.737854169e-06
-5.703795215e-06
-1.157404997e-05
-2.291788988e-05
-4.424433751e-05
-8.371781623e-05
-0.000155151133
-0.0002821029
-0.0004940990429
-0.0008469478351
-0.001419436659
-0.00232438526
-0.003720751753
-0.005827179834
-0.008951454243
-0.01350348239
-0.02003718116
-0.02932154835
-0.04207467498
-0.06067341113
-0.08312823407
-0.1111097143
-0.144216573
-0.1847836829
-0.2224081383
-0.255869066
-0.2777829612
-0.2930668791
-0.2565937666
-0.1735664343
-0.03560431802
0.1597930136
0.4095881015
0.699057358
0.9880177555
1.296316118
1.584899429
1.862194153
2.098526115
2.273893313
2.373567685
2.397664123
2.352097576
2.252723914
2.089828365
1.880339141
1.6474486
1.420207714
1.188925886
0.9686245147
0.76532754
0.5575570821
0.4149159549
0.2983739561
0.1909601372
0.1106939025
0.05167018086
0.008981049312
-0.0212055566
-0.04184067495
-0.05484610352
-0.06263115184
-0.06625667121
-0.06684612604
-0.06528408069
-0.06226004907
-0.0583044568
-0.05381857591
-0.04909979928
-0.04436295526
-0.03975824184
-0.03538558475
-0.0313069728
-0.02755604825
-0.02414574955
-0.02107430948
-0.01832989115
-0.01589411998
-0.01374472575
-0.01185748439
-0.01020761182
-0.008770734799
-0.007523539716
-0.006444181017
-0.005512510978
-0.004710180687
-0.004020650116
-0.003429136121
-0.002922520077
-0.002489231195
-0.00211911725
-0.001803311028
-0.00153409831
-0.001304791226
-0.001109609406
-0.0009435703125
-0.0008023893653
-0.0006823899535
-0.0005804230662
-0.0004937960435
-0.000420209804
-0.0003577038385
-0.0003046082316
-0.0002595019816
-0.0002211769207
-0.0001886065794
-0.0001609193915
-0.0001373756898
-0.0001173479995
-0.000100304188
-8.579308087e-05
-7.343220207e-05
-6.289733766e-05
-5.391366211e-05
-4.624820072e-05
-3.970343256e-05
-3.411186516e-05
-2.933143644e-05
-2.524161947e-05
-2.174012433e-05
-1.874010619e-05
-1.616780266e-05
-1.396053464e-05
-1.2065015e-05
-1.043591764e-05
-9.034666845e-06
-7.828412874e-06
-6.789165101e-06
-5.8930582e-06
-5.119730897e-06
-4.451799788e-06
-3.87441359e-06
-3.374875333e-06
-2.942322026e-06
-2.567452939e-06
-2.24229898e-06
-1.960026882e-06
-1.714772832e-06
-1.501501056e-06
-1.315883521e-06
-1.154197554e-06
-1.01323865e-06
-8.902461696e-07
-7.8283997e-07
-6.889663312e-07
-6.068517792e-07
-5.349636062e-07
-4.719762002e-07
-4.167420501e-07
-3.682670986e-07
-3.256895057e-07
-2.88261485e-07
-2.553336931e-07
-2.263418238e-07
-2.007950877e-07
-1.782662975e-07
-1.583833351e-07
-1.408217995e-07
-1.252986679e-07
-1.115668253e-07
-9.941034122e-08
-8.864038937e-08
-7.909171746e-08
-7.061959415e-08
-6.309716279e-08
-5.641314888e-08
-5.04698719e-08
-4.518151996e-08
-4.047265018e-08
-3.627688728e-08
-3.253578821e-08
-2.919785687e-08
-2.621768415e-08
-2.355519969e-08
-2.117501841e-08
-1.90458687e-08
-1.714009512e-08
-1.543322274e-08
-1.39035758e-08
-1.253194384e-08
-1.130129007e-08
-1.019649393e-08
-9.20412795e-09
-8.312257919e-09
-7.510271572e-09
-6.788724899e-09
-6.139208714e-09
-5.554229921e-09
-5.027107804e-09
-4.551882861e-09
-4.123233436e-09
-3.736407035e-09
-3.387156275e-09
-3.071682172e-09
-2.786585603e-09
-2.528822787e-09
-2.295667503e-09
-2.084675381e-09
-1.893655195e-09
-1.720640687e-09
-1.563866707e-09
-1.421747708e-09
-1.292858786e-09
-1.175919057e-09
-1.069776288e-09
-9.733932927e-10
-8.858366837e-10
-8.062655487e-10
-7.339222309e-10
-6.68123425e-10
-6.082528947e-10
-5.537549588e-10
-5.041275768e-10
-4.589177416e-10
-4.177160019e-10
-3.801523286e-10
-3.45892262e-10
-3.146332606e-10
-2.861014645e-10
-2.600491289e-10
-2.362521146e-10
-2.145071315e-10
-1.946298353e-10
-1.764534939e-10
-1.59826851e-10
-1.446123481e-10
-1.30685453e-10
-1.179329358e-10
-1.062522984e-10
-9.555006128e-11
-8.574144011e-11
-7.674933093e-11
-6.85037089e-11
-6.094089106e-11
-5.400262438e-11
-4.763614991e-11
-4.179334874e-11
-3.643029235e-11
-3.150691396e-11
-2.69867885e-11
-2.283680293e-11
-1.902663225e-11
-1.552844325e-11
-1.23169044e-11
-9.368889373e-12
-6.663298821e-12
-4.180905664e-12
-1.903895252e-12
1.838965184e-13
2.097383732e-12
3.850087261e-12
5.454481275e-12
6.922032215e-12
8.263175297e-12
9.487534675e-12
1.060402148e-11
1.162070218e-11
1.254510326e-11
1.338407452e-11
1.414403225e-11
1.483075799e-11
1.544965671e-11
1.600563108e-11
1.650334851e-11
1.694701917e-11
1.734055233e-11
1.768754684e-11
1.799138775e-11
1.825507461e-11
1.848156507e-11
1.867351322e-11
1.883335294e-11
1.896338645e-11
1.906578491e-11
1.914252923e-11
1.919549653e-11
1.922630459e-11
1.923658342e-11
1.922782848e-11
1.920136313e-11
1.915854929e-11
1.910056892e-11
1.9028542e-11
1.894356491e-11
1.884654898e-11
1.873843921e-11
1.862008337e-11
1.84922998e-11
1.835585876e-11
1.821149548e-11
1.80598247e-11
1.790146105e-11
1.773698986e-11
1.756704781e-11
1.739204517e-11
1.721252614e-11
1.702890369e-11
1.684164185e-11
1.665108235e-11
1.645760801e-11
1.626154873e-11
1.606324422e-11
1.58630408e-11
1.566123696e-11
1.545807767e-11
1.525385572e-11
1.504884358e-11
1.484321388e-11
1.463717607e-11
1.443095446e-11
1.42246896e-11
1.401861488e-11
1.381286935e-11
1.360756852e-11
1.340287902e-11
1.319891431e-11
1.299582216e-11
1.279373253e-11
1.259274008e-11
1.239296957e-11
1.219448371e-11
1.199737214e-11
1.180171951e-11
1.160763571e-11
1.141516328e-11
1.122436213e-11
1.103528677e-11
1.084803741e-11
1.06626196e-11
1.047906298e-11
1.029743053e-11
1.011775405e-11
9.940071665e-12
9.764417015e-12
9.590795605e-12
9.419278233e-12
9.249857844e-12
9.082534564e-12
8.917318521e-12
8.754236047e-12
8.593287945e-12
8.434508432e-12
8.277884183e-12
8.123392564e-12
7.97105315e-12
7.82087503e-12
7.672843949e-12
7.526973631e-12
7.383284233e-12
7.24172363e-12
7.102292384e-12
6.964985824e-12
6.829806831e-12
6.696717948e-12
6.565710697e-12
6.436775731e-12
6.309899044e-12
6.18505729e-12
6.062258163e-12
5.941477107e-12
5.822675916e-12
5.705883867e-12
5.591052343e-12
5.478156618e-12
5.367191327e-12
5.258117648e-12
5.150905293e-12
5.045573211e-12
4.942080412e-12
4.840403599e-12
4.740534377e-12
4.642420375e-12
4.546068561e-12
4.451434172e-12
4.35852568e-12
4.267305828e-12
4.17776674e-12
4.08984939e-12
4.003539039e-12
3.918831271e-12
3.835687067e-12
3.754109963e-12
3.674071864e-12
3.595544628e-12
3.518498878e-12
3.442909133e-12
3.368745934e-12
3.29600252e-12
3.224650961e-12
3.154662545e-12
3.086030269e-12
3.018723277e-12
2.952741338e-12
2.88804901e-12
2.824629605e-12
2.762457467e-12
2.70150952e-12
2.641767297e-12
2.583200838e-12
2.525800122e-12
2.469541565e-12
2.414413673e-12
2.360394531e-12
2.307483871e-12
2.255630622e-12
2.204802614e-12
2.155001851e-12
2.106204526e-12
2.0584079e-12
2.011591913e-12
1.965738063e-12
1.920810377e-12
1.876797606e-12
1.833688451e-12
1.791462916e-12
1.750113343e-12
1.709629091e-12
1.669980984e-12
1.631156487e-12
1.593129438e-12
1.555888178e-12
1.519430136e-12
1.483733744e-12
1.448789694e-12
1.414564777e-12
1.381060398e-12
1.3482626e-12
1.316153949e-12
1.284726604e-12
1.25397005e-12
1.22385779e-12
1.194382664e-12
1.165529128e-12
1.137286906e-12
1.109652214e-12
1.082599964e-12
1.056120487e-12
1.030196866e-12
1.004821907e-12
9.799911313e-13
9.556832996e-13
9.318972485e-13
9.086130842e-13
8.858358702e-13
8.635415749e-13
8.417319512e-13
8.203900738e-13
7.994934618e-13
7.790468289e-13
7.590344825e-13
7.39451253e-13
7.202858287e-13
7.015377127e-13
6.831865129e-13
6.652247012e-13
6.476547972e-13
6.304568509e-13
6.136379334e-13
5.971882728e-13
5.810974302e-13
5.653440026e-13
5.499193332e-13
5.348231817e-13
5.200561381e-13
5.055974974e-13
4.914464279e-13
4.775937114e-13
4.640404398e-13
4.507753264e-13
4.377970069e-13
4.250992864e-13
4.126737964e-13
4.005123516e-13
3.886084178e-13
3.76968637e-13
3.655750907e-13
3.544245281e-13
3.435033666e-13
3.328054901e-13
3.223338906e-13
3.120922262e-13
3.020697472e-13
2.922644207e-13
2.826551431e-13
2.732443306e-13
2.640352568e-13
2.550196392e-13
2.461874171e-13
2.375405435e-13
2.290765666e-13
2.20791576e-13
2.12683053e-13
2.047440743e-13
1.969692929e-13
1.893602009e-13
1.819124189e-13
1.746110301e-13
1.674656839e-13
1.604633767e-13
1.536037679e-13
1.468802217e-13
1.402985468e-13
1.338552601e-13
1.275420302e-13
1.213550375e-13
1.152937757e-13
1.093541661e-13
1.035334601e-13
9.783214596e-14
9.225498758e-14
8.679385964e-14
8.14406084e-14
7.619608577e-14
7.105609615e-14
6.602079499e-14
6.10823059e-14
5.623920833e-14
5.149330324e-14
4.684224671e-14
4.228464121e-14
3.782024626e-14
3.344853574e-14
2.916512064e-14
2.49694808e-14
2.085417996e-14
1.681601146e-14
1.285600447e-14
8.973178084e-15
5.171763652e-15
1.441896268e-15
-2.206505606e-15
-5.780840297e-15
-9.280776685e-15
-1.270576958e-14
-1.606471123e-14
-1.93536422e-14
-2.25703059e-14
-2.571710387e-14
-2.879273257e-14
-3.179733326e-14
-3.472930523e-14
-3.75889793e-14
-4.037137926e-14
-4.308581078e-14
-4.573287685e-14
-4.831518762e-14
-5.08381546e-14
-5.331298478e-14
-5.574189295e-14
-5.817697238e-14
-6.060354898e-14
-6.311294349e-14
-6.577666518e-14
-6.866939159e-14
-7.169915772e-14
-9.722678254e-14
-9.626444674e-14
-1.062630721e-13
-1.125466964e-13
-1.159810881e-13
-1.173661215e-13
-1.171434853e-13
-1.156794402e-13
-1.132771515e-13
-1.101094037e-13
-1.063581327e-13
-1.022419851e-13
-9.782071229e-14
-9.324485054e-14
-8.861410885e-14
-8.406064054e-14
-7.966685432e-14
-7.54943171e-14
-7.165025557e-14
-6.820536233e-14
-6.523197443e-14
-6.278293858e-14
-6.091683857e-14
-5.967194777e-14
-5.910165535e-14
-5.922679044e-14
-6.007548375e-14
-6.166138501e-14
-6.399038435e-14
-6.70601945e-14
-7.085836779e-14
-7.536447412e-14
-8.054774821e-14
-8.636776028e-14
-9.277719864e-14
-9.971804878e-14
-1.071221482e-13
-1.149149499e-13
-1.230132912e-13
-1.313278825e-13
-1.3976285e-13
-1.482172282e-13
-1.565872822e-13
-1.647660541e-13
-1.726462943e-13
-1.801228909e-13
-1.870915997e-13
-1.934554816e-13
-1.991217532e-13
-2.04006648e-13
-2.08037106e-13
-2.111523929e-13
-2.133005147e-13
-2.144489786e-13
-2.145752687e-13
-2.13677088e-13
-2.11759258e-13
-2.088483338e-13
-2.049850197e-13
-2.002192764e-13
-1.946162567e-13
-1.882507305e-13
-1.812060629e-13
-1.735751102e-13
-1.654521168e-13
-1.569375532e-13
-1.481315018e-13
-1.391337625e-13
-1.300410853e-13
-1.209461034e-13
-1.11935394e-13
-1.030888089e-13
-9.447769881e-14
-8.616488093e-14
-7.820339196e-14
-7.063676559e-14
-6.349850124e-14
-5.68138686e-14
-5.0596804e-14
-4.485479599e-14
-3.958560537e-14
-3.478225846e-14
-3.042926486e-14
-2.650749286e-14
-2.299385515e-14
-1.986145321e-14
-1.708122975e-14
-1.46234872e-14
-1.245738605e-14
-1.055302413e-14
-8.88106939e-15
-7.413958744e-15
-6.125688774e-15
-4.992852581e-15
-3.994148056e-15
-3.111020685e-15
-2.327329329e-15
-1.629379884e-15
-1.005838186e-15
-4.474573906e-16
5.311057575e-17
5.01613541e-16
9.024625127e-16
1.258983415e-15
1.573731205e-15
1.848699933e-15
2.085566644e-15
2.285863487e-15
2.451172803e-15
2.583124431e-15
2.683676938e-15
2.754944067e-15
2.799348395e-15
2.819547001e-15
2.818366462e-15
2.79881724e-15
2.76392483e-15
2.716721328e-15
2.660139421e-15
2.596922913e-15
2.52958928e-15
2.46034743e-15
2.391057637e-15
2.323223985e-15
2.257954145e-15
2.195993272e-15
2.137710872e-15
2.083171307e-15
2.032136187e-15
1.984136448e-15
1.938524354e-15
1.894520988e-15
1.851287353e-15
1.807941779e-15
1.763656337e-15
1.717664852e-15
1.669297059e-15
1.618021471e-15
1.563432109e-15
1.505265797e-15
1.443420268e-15
1.377950745e-15
1.30897362e-15
1.236803212e-15
1.161759486e-15
1.084252395e-15
1.004794538e-15
9.238517896e-16
8.419209774e-16
7.594928674e-16
6.770338641e-16
5.949705644e-16
5.137064229e-16
4.33596231e-16
3.549564246e-16
2.78042975e-16
2.030899467e-16
1.302912186e-16
5.981130158e-17
-8.218286366e-18
-7.36569223e-17
-1.364125464e-16
-1.963837763e-16
-2.535089447e-16
-3.077094221e-16
-3.589267536e-16
-4.071009351e-16
-4.522168362e-16
-4.942632567e-16
-5.332079747e-16
-5.690966084e-16
-6.019491155e-16
-6.318244955e-16
-6.588306105e-16
-6.83039412e-16
-7.046132922e-16
-7.236831043e-16
-7.404154516e-16
-7.550253525e-16
-7.677163459e-16
-7.787029977e-16
-7.882290984e-16
-7.96538575e-16
-8.038814463e-16
-8.105025048e-16
-8.166954926e-16
-8.226743154e-16
-8.286941762e-16
-8.350005602e-16
-8.418274262e-16
-8.493704266e-16
-8.578552321e-16
-8.674496741e-16
-8.783045639e-16
-8.905600268e-16
-9.043322319e-16
-9.196821966e-16
-9.366492263e-16
-9.552476058e-16
-9.754659412e-16
-9.972145422e-16
-1.02039576e-15
-1.044865227e-15
-1.070452536e-15
-1.096925298e-15
-1.124025807e-15
-1.151460028e-15
-1.178903799e-15
-1.206009908e-15
-1.232400035e-15
-1.257665475e-15
-1.281399565e-15
-1.303183439e-15
-1.322570384e-15
-1.33914983e-15
-1.35248696e-15
-1.362191577e-15
-1.367857058e-15
-1.369121658e-15
-1.365648158e-15
-1.357136642e-15
-1.343321541e-15
-1.323982115e-15
-1.298940578e-15
-1.268070131e-15
-1.231291218e-15
-1.188579907e-15
-1.139966103e-15
-1.085523622e-15
-1.025380988e-15
-9.597255722e-16
-8.887841454e-16
-8.128349053e-16
-7.32206349e-16
-6.472635218e-16
-5.584161499e-16
-4.660955945e-16
-3.707923688e-16
-2.730102318e-16
-1.732748477e-16
-7.216027506e-17
2.978727918e-17
1.319714784e-16
2.337945297e-16
3.346866965e-16
4.340576949e-16
5.313653871e-16
6.261322883e-16
7.180175889e-16
8.073774256e-16
)
;

boundaryField
{
    inlet
    {
        type            calculated;
        value           uniform 0;
    }
    outlet
    {
        type            calculated;
        value           uniform 8.260323019e-16;
    }
    wall
    {
        type            empty;
    }
}


// ************************************************************************* //
