/*--------------------------------*- C++ -*----------------------------------*\
  =========                 |
  \\      /  F ield         | OpenFOAM: The Open Source CFD Toolbox
   \\    /   O peration     | Website:  https://openfoam.org
    \\  /    A nd           | Version:  7
     \\/     M anipulation  |
\*---------------------------------------------------------------------------*/
FoamFile
{
    version     2.0;
    format      ascii;
    class       surfaceScalarField;
    location    "0.000558243009";
    object      ddtCorrDdt0(phi);
}
// * * * * * * * * * * * * * * * * * * * * * * * * * * * * * * * * * * * * * //

dimensions      [1 0 -2 0 0 0 0];

internalField   nonuniform List<scalar> 
1499
(
0.01009404584
0.0200520889
0.0300115717
0.04007858327
0.04954243753
0.05814372836
0.06521484629
0.07078288273
0.07446566715
0.07635264521
0.07622168615
0.07415389643
0.07011989731
0.06425064337
0.05670211603
0.04769831601
0.03751514485
0.02646258699
0.01487230045
0.003081895309
-0.008580387693
-0.0198093966
-0.03033457001
-0.0399285814
-0.0484127616
-0.05565917473
-0.06158947143
-0.066170878
-0.06940988064
-0.07134431617
-0.07203467064
-0.07155540689
-0.06998708941
-0.06740996846
-0.06389948002
-0.05952390992
-0.05434426213
-0.04841605877
-0.04179267329
-0.03452962515
-0.02668919261
-0.01834470459
-0.009583950238
-0.0005112728592
0.008751916071
0.0180682759
0.02728723904
0.03624902193
0.04478959889
0.05274622203
0.05996307045
0.06629664155
0.0716205642
0.07582960111
0.07884270187
0.08060505459
0.08108915917
0.08029499245
0.07824937194
0.07500462849
0.07063669186
0.06524267933
0.05893805044
0.05185338618
0.04413083316
0.03592026771
0.02737524981
0.01864885649
0.009889524274
0.001237054008
-0.007181053092
-0.01525274359
-0.02288387818
-0.02999987218
-0.03654641634
-0.04248924096
-0.04781294207
-0.05251896877
-0.05662291066
-0.060151283
-0.06313802645
-0.0656209514
-0.06763834954
-0.06922596561
-0.07041448942
-0.07122767939
-0.07168117942
-0.07178204518
-0.07152894946
-0.07091300023
-0.06991907642
-0.06852756409
-0.06671636529
-0.06446304618
-0.06174699317
-0.05855145383
-0.05486535301
-0.05068479393
-0.04601417417
-0.04086687369
-0.03526550026
-0.02924170582
-0.02283561305
-0.01609491682
-0.009073741382
-0.001831347185
0.005569216166
0.01306242372
0.02058148322
0.02805937469
0.03542970635
0.04262736939
0.04958902942
0.05625348121
0.06256193328
0.06845827426
0.07388937577
0.07880547884
0.08316068029
0.08691352949
0.09002771144
0.09247277852
0.09422488358
0.09526744872
0.09559171774
0.09519713765
0.09409153651
0.0922910787
0.0898200025
0.08671016284
0.08300041727
0.07873590743
0.07396728912
0.06874996401
0.06314335181
0.05721023477
0.05101617618
0.04462900882
0.03811835163
0.03155511844
0.02501095681
0.01855756027
0.01226580266
0.006204652508
0.00043985823
-0.004967597752
-0.009963224348
-0.01450086622
-0.01854456293
-0.02207030799
-0.0250675698
-0.02754044186
-0.02950828776
-0.03100577698
-0.03208223009
-0.03280023739
-0.03323355912
-0.03346436955
-0.03357995268
-0.0336690105
-0.03381777278
-0.03410613395
-0.03460404421
-0.035368387
-0.03644054245
-0.03784480859
-0.03958779207
-0.04165881481
-0.04403132025
-0.04666517312
-0.04950969646
-0.05250721061
-0.05559681144
-0.05871809032
-0.06181451144
-0.06483617569
-0.06774177292
-0.07049957231
-0.07308741099
-0.07549172254
-0.07770574383
-0.07972711285
-0.08155513245
-0.08318800289
-0.08462031959
-0.08584110642
-0.0868325887
-0.08756983103
-0.08802127599
-0.08815012976
-0.08791646231
-0.08727983523
-0.08620223387
-0.08465107563
-0.08260207873
-0.08004181135
-0.07696976269
-0.07339983122
-0.06936113065
-0.06489803375
-0.06006938499
-0.05494679473
-0.04961195654
-0.044152954
-0.03865958716
-0.0332178669
-0.02790396678
-0.02277809796
-0.01787895499
-0.01321952219
-0.008785116672
-0.004534500166
-0.0004047251981
0.003679964987
0.007795352732
0.01200138358
0.01632469733
0.02074171739
0.02516496969
0.02943562235
0.03332514671
0.03654853427
0.03879050219
0.03974472844
0.03916432329
0.0369197618
0.03305846544
0.02785848536
0.02186754344
0.01591831801
0.01111155175
0.008760468675
0.01029308616
0.01711328006
0.03042652702
0.05104178962
0.07916642035
0.1142156335
0.1546614475
0.1979471728
0.2404923653
0.2778090224
0.3047425988
0.3158419748
0.3058485738
0.270287
0.206107201
0.1123753987
-0.009226439626
-0.1536706249
-0.1636744511
-0.1737364919
-0.1838597293
-0.1940413781
-0.2042782117
-0.214567031
-0.2249046165
-0.2352876675
-0.2457128371
-0.25617669
-0.2666757302
-0.2772063795
-0.2877649915
-0.2983478551
-0.3089511779
-0.3195711029
-0.3302036949
-0.3408449553
-0.3514908045
-0.3621371006
-0.3727796301
-0.3834141058
-0.3940361725
-0.4046414068
-0.4152253251
-0.4257833593
-0.4363108917
-0.4468032243
-0.457255607
-0.4676632084
-0.4780211471
-0.4883244702
-0.4985681653
-0.5087471627
-0.5188563235
-0.5288904458
-0.5388442888
-0.5487125312
-0.5584898047
-0.5681706878
-0.5777497025
-0.5872213166
-0.5965799452
-0.6058199555
-0.6149356596
-0.6239213256
-0.632771176
-0.6414793864
-0.6500400839
-0.6584473631
-0.6666952654
-0.6747778087
-0.682688957
-0.6904226483
-0.697972787
-0.705333243
-0.7124978505
-0.7194604223
-0.7262147423
-0.7327545688
-0.7390736348
-0.7451656611
-0.7510243369
-0.7566433424
-0.7620163456
-0.7671369986
-0.7719989417
-0.7765958108
-0.7809212383
-0.7849688484
-0.7887322634
-0.7922051141
-0.7953810342
-0.7982536559
-0.800816636
-0.8030636267
-0.8049883008
-0.806584353
-0.8078455016
-0.8087654701
-0.8093380275
-0.8095569605
-0.8094160817
-0.8089092565
-0.8080303693
-0.8067733539
-0.8051321859
-0.8031008819
-0.8006735186
-0.7978442114
-0.7946071454
-0.7909565533
-0.7868867404
-0.7823920667
-0.7774669729
-0.7721059602
-0.7663036091
-0.7600545788
-0.7533536105
-0.7461955349
-0.7385752612
-0.7304878057
-0.7219282691
-0.7128918598
-0.7033738823
-0.6933697471
-0.6828749818
-0.6718852222
-0.660396227
-0.6484038719
-0.6359041565
-0.6228932114
-0.6093672984
-0.5953228131
-0.5807562938
-0.5656644221
-0.5500440251
-0.5338920748
-0.5172057111
-0.4999822238
-0.482219061
-0.4639138463
-0.445064364
-0.4256685774
-0.40572462
-0.3852308158
-0.3641856616
-0.3425878552
-0.3204362746
-0.2977299983
-0.2744683069
-0.2506506781
-0.2262768055
-0.2013465786
-0.1758601102
-0.149817732
-0.1232199909
-0.09606766504
-0.06836175666
-0.04010350174
-0.01129436633
0.01806393935
0.04796946383
0.07842001647
0.1094131466
0.1409461637
0.1730161139
0.2056197839
0.2387537006
0.2724141356
0.3065970773
0.3412982494
0.3765131053
0.4122368177
0.4484642859
0.485190119
0.5224086415
0.5601138964
0.598299636
0.6369593102
0.6760860851
0.715672823
0.755712089
0.7961961398
0.8371169427
0.8784661404
0.9202350794
0.9624148004
1.004996012
1.047969133
1.091324256
1.135051158
1.179139293
1.223577808
1.268355519
1.313460927
1.358882209
1.404607221
1.450623494
1.496918231
1.543478318
1.590290307
1.637340434
1.68461461
1.732098412
1.779777101
1.827635607
1.875658546
1.923830203
1.972134538
2.0205552
2.069075512
2.117678479
2.166346788
2.215062811
2.263808606
2.31256592
2.361316193
2.410040555
2.458719831
2.507334544
2.555864921
2.604290888
2.652592092
2.700747871
2.748737287
2.796539123
2.844131887
2.891493807
2.938602851
2.98543671
3.031972836
3.078188415
3.12406039
3.169565459
3.214680082
3.2593805
3.303642724
3.34744255
3.390755561
3.433557144
3.475822491
3.517526606
3.558644315
3.59915027
3.639018972
3.678224759
3.716741829
3.754544255
3.791605976
3.82790082
3.863402517
3.898084696
3.931920916
3.964884667
3.99694937
4.028088408
4.058275136
4.087482882
4.115684977
4.142854747
4.168965549
4.193990775
4.217903863
4.240678324
4.262287748
4.282705821
4.301906345
4.319863258
4.336550642
4.351942745
4.366014006
4.378739068
4.390092791
4.400050282
4.408586919
4.41567835
4.421300545
4.425429792
4.42804273
4.429116389
4.428628141
4.426555803
4.420901129
4.411795106
4.400289713
4.388953358
4.377367888
4.365108968
4.351745183
4.33682765
4.319898864
4.300492555
4.278134175
4.252343617
4.222642932
4.18853918
4.149828157
4.11013396
4.069666848
4.02864804
3.987307373
3.944442017
3.899104429
3.851279561
3.800952656
3.74810924
3.692735155
3.634816575
3.574340051
3.511292517
3.445661336
3.377434298
3.306599693
3.233146278
3.157063346
3.078340733
2.996968845
2.912938684
2.826241872
2.736870672
2.644818016
2.550077518
2.452643518
2.35251109
2.249676061
2.14413505
2.035885464
1.92492556
1.811254427
1.694872028
1.575779219
1.453977775
1.329470399
1.202260749
1.072353463
0.939754166
0.8044695093
0.666507169
0.525875892
0.3825854834
0.2366468492
0.0880720075
-0.0631258988
-0.2169325768
-0.3733325641
-0.5323092192
-0.6938447029
-0.8579199546
-1.024514691
-1.19360737
-1.365175194
-1.539194083
-1.71563867
-1.894482273
-2.075696898
-2.259253209
-2.445120536
-2.633266844
-2.823658728
-3.016261408
-3.21103871
-3.407953058
-3.606965478
-3.808035565
-4.011121489
-4.216180002
-4.423166409
-4.632034564
-4.842736886
-5.055224335
-5.269446418
-5.485351184
-5.70288522
-5.921993654
-6.14262016
-6.364706952
-6.588194789
-6.81302298
-7.039129381
-7.266450416
-7.494921062
-7.724474869
-7.955043961
-8.186559059
-8.418949462
-8.652143083
-8.886066438
-9.12064466
-9.355801516
-9.591459405
-9.827539352
-10.06396104
-10.30064279
-10.53750155
-10.7744529
-11.01141106
-11.2482888
-11.48499749
-11.721447
-11.95754566
-12.1932002
-12.42831566
-12.66279522
-12.89654011
-13.12944944
-13.36141991
-13.59234561
-13.82211766
-14.05062384
-14.2777481
-14.50337001
-14.72736413
-14.94959918
-15.16993714
-15.38823216
-15.60432929
-15.81806297
-16.02925533
-16.23771415
-16.44323054
-16.64557628
-16.84450072
-17.03972727
-17.23094942
-17.41782622
-17.59997722
-17.77697461
-17.94834326
-18.11354785
-18.27198737
-18.4229872
-18.56579078
-18.69955216
-18.82332428
-18.93605377
-19.03657193
-19.12358868
-19.19568761
-19.25132369
-19.28882397
-19.30639229
-19.3021186
-19.27399372
-19.21993003
-19.13778853
-19.02541168
-18.8806641
-18.70147598
-18.48589197
-18.23212199
-17.93859212
-17.6039951
-17.22733001
-16.80794364
-16.34555759
-15.84028606
-15.29264203
-14.70353337
-14.07424582
-13.40641856
-12.7020102
-11.96325377
-11.19258965
-10.39255326
-9.56559456
-8.71367351
-7.836287803
-6.935409491
-6.002959446
-5.054789797
-4.11068296
-3.207768069
-2.28543234
-1.350368429
-0.4092369839
0.5332646581
1.474067901
2.407893844
3.336612706
4.25713492
5.160458661
6.082530053
6.978101339
7.832603156
8.669829512
9.495861368
10.30193035
11.08950717
11.85478579
12.60104356
13.32569682
14.00049857
14.64864679
15.26598615
15.84885247
16.39370251
16.89727933
17.35581406
17.77145074
18.14178497
18.48239337
18.78565291
19.05692
19.3006629
19.52011197
19.71699681
19.90172637
20.06792555
20.21627246
20.34714568
20.46049266
20.55843647
20.64640989
20.72861964
20.80830671
20.89251391
20.96089985
21.01575211
21.067134
21.1137487
21.15487684
21.1903364
21.22027994
21.24503485
21.26447098
21.27945653
21.29032653
21.29737786
21.30087002
21.30102566
21.29803426
21.29205674
21.28323003
21.27167124
21.25748148
21.24074839
21.22154872
21.19995032
21.17601376
21.14979366
21.12133932
21.09069588
21.05790494
21.02300457
20.98603024
20.94701496
20.90598958
20.862983
20.81802237
20.77113329
20.72233994
20.6716652
20.61913081
20.56475743
20.50856475
20.45057161
20.39079602
20.32925527
20.26596597
20.20094413
20.13420521
20.06576415
19.99563543
19.9238331
19.85037083
19.77526195
19.69851945
19.62015604
19.54018417
19.45861603
19.37546363
19.29073875
19.204453
19.11661786
19.02724464
18.93634452
18.8439286
18.75000786
18.65459318
18.5576954
18.45932527
18.3594935
18.25821073
18.1554876
18.05133469
17.94576257
17.8387818
17.73040291
17.62063645
17.50949295
17.39698297
17.28311705
17.16790577
17.05135972
16.93348951
16.81430578
16.69381919
16.57204042
16.44898022
16.32464934
16.19905858
16.07221878
15.94414081
15.8148356
15.6843141
15.55258732
15.41966631
15.28556218
15.15028605
15.01384913
14.87626254
14.73753768
14.59768571
14.45671818
14.3146465
14.17148217
14.02723671
13.88192171
13.73554878
13.58812961
13.43967591
13.29019945
13.13971205
12.98822557
12.83575192
12.68230305
12.52789096
12.3725277
12.21622535
12.05899605
11.90085196
11.74180531
11.58186834
11.42105336
11.25937269
11.09683872
10.93346386
10.76926055
10.60424128
10.43841857
10.27180498
10.10441309
9.936255537
9.767344961
9.597694051
9.427315522
9.256222117
9.084426608
8.911941796
8.738780506
8.564955589
8.390479921
8.215366401
8.039627953
7.86327752
7.686328067
7.50879258
7.330684061
7.152015535
6.97280004
6.793050633
6.612780383
6.432002378
6.250729717
6.068975513
5.88675289
5.704074982
5.520954936
5.337405906
5.153441055
4.969073554
4.78431658
4.599183317
4.413686953
4.22784068
4.041657694
3.855151194
3.66833438
3.481220453
3.293822615
3.106154065
2.918228004
2.730057628
2.541656132
2.353036706
2.164212535
1.975196801
1.786002678
1.596643334
1.407131929
1.217481617
1.02770554
0.8378168319
0.647828617
0.4577540077
0.2676061051
0.07739799748
-0.1128572392
-0.3031465433
-0.493456867
-0.683775178
-0.8740884598
-1.064383711
-1.254647949
-1.444868208
-1.635031539
-1.825125014
-2.015135723
-2.205050777
-2.394857308
-2.584542468
-2.774093431
-2.963497395
-3.152741579
-3.341813227
-3.530699608
-3.719388013
-3.907865761
-4.096120197
-4.284138689
-4.471908637
-4.659417465
-4.846652627
-5.033601604
-5.220251908
-5.40659108
-5.592606692
-5.778286345
-5.963617673
-6.148588342
-6.333186051
-6.517398528
-6.70121354
-6.884618885
-7.067602396
-7.25015194
-7.43225542
-7.613900778
-7.795075988
-7.975769063
-8.155968055
-8.335661052
-8.514836181
-8.693481608
-8.87158554
-9.049136221
-9.226121939
-9.402531021
-9.578351836
-9.753572794
-9.928182349
-10.102169
-10.27552128
-10.44822778
-10.62027712
-10.79165798
-10.96235908
-11.13236917
-11.30167708
-11.47027166
-11.63814181
-11.80527649
-11.9716647
-12.13729548
-12.30215794
-12.46624123
-12.62953454
-12.79202713
-12.95370829
-13.11456738
-13.27459381
-13.43377702
-13.59210654
-13.74957193
-13.9061628
-14.06186883
-14.21667975
-14.37058534
-14.52357544
-14.67563995
-14.82676882
-14.97695207
-15.12617976
-15.27444203
-15.42172905
-15.56803108
-15.71333843
-15.85764146
-16.00093059
-16.14319633
-16.28442923
-16.42461989
-16.563759
-16.70183729
-16.83884559
-16.97477474
-17.1096157
-17.24335947
-17.3759971
-17.50751974
-17.63791859
-17.76718492
-17.89531006
-18.02228542
-18.14810248
-18.27275278
-18.39622794
-18.51851965
-18.63961967
-18.75951981
-18.878212
-18.9956882
-19.11194046
-19.22696092
-19.34074175
-19.45327524
-19.56455374
-19.67456967
-19.78331553
-19.8907839
-19.99696744
-20.10185888
-20.20545104
-20.30773681
-20.40870916
-20.50836114
-20.60668589
-20.70367663
-20.79932665
-20.89362924
-20.98657795
-21.07816634
-21.16838804
-21.25723661
-21.344706
-21.43079009
-21.51548286
-21.59877838
-21.6806708
-21.76115434
-21.84022333
-21.91787218
-21.99409539
-22.06888756
-22.14224337
-22.21415758
-22.28462507
-22.35364078
-22.42119977
-22.48729717
-22.55192823
-22.61508826
-22.6767727
-22.73697705
-22.79569694
-22.85292807
-22.90866624
-22.96290736
-23.01564742
-23.06688252
-23.11660887
-23.16482274
-23.21152053
-23.25669874
-23.30035395
-23.34248286
-23.38308226
-23.42214904
-23.4596802
-23.49567284
-23.53012415
-23.56303144
-23.59439211
-23.62420367
-23.65246374
-23.67917002
-23.70432035
-23.72791265
-23.74994494
-23.77041538
-23.78932219
-23.80666373
-23.82243845
-23.83664492
-23.84928181
-23.86034789
-23.86984204
-23.87776325
-23.88411064
-23.88888339
-23.89208083
-23.89370239
-23.8937476
-23.89221609
-23.88910762
-23.88442206
-23.87815936
-23.87031961
-23.86090301
-23.84990983
-23.83734051
-23.82319554
-23.80747556
-23.79018132
-23.77131364
-23.7508735
-23.72886196
-23.7052802
-23.6801295
-23.65341126
-23.62512698
-23.59527828
-23.56386689
-23.53089465
-23.49636348
-23.46027545
-23.42263272
-23.38343756
-23.34269234
-23.30039955
-23.25656179
-23.21118176
-23.16426227
-23.11580623
-23.06581667
-23.01429671
-22.9612496
-22.90667867
-22.85058737
-22.79297925
-22.73385796
-22.67322727
-22.61109104
-22.54745324
-22.48231792
-22.41568927
-22.34757156
-22.27796915
-22.20688653
-22.13432825
-22.06029901
-21.98480355
-21.90784676
-21.82943359
-21.74956911
-21.66825847
-21.58550693
-21.50131983
-21.4157026
-21.32866079
-21.24020001
-21.15032598
-21.05904451
-20.96636148
-20.87228287
-20.77681477
-20.67996333
-20.58173478
-20.48213546
-20.38117177
-20.27885022
-20.17517737
-20.07015989
-19.96380451
-19.85611805
-19.7471074
-19.63677954
-19.52514151
-19.41220044
-19.29796353
-19.18243804
-19.06563131
-18.94755077
-18.82820389
-18.70759823
-18.5857414
-18.46264109
-18.33830506
-18.21274111
-18.08595714
-17.95796108
-17.82876093
-17.69836476
-17.56678069
-17.43401691
-17.30008165
-17.16498319
-17.0287299
-16.89133017
-16.75279245
-16.61312525
-16.47233722
-16.33043686
-16.18743283
-16.04333383
-15.8981486
-15.75188594
-15.60455486
-15.45616412
-15.30672269
-15.15623963
-15.00472408
-14.85218531
-14.69863271
-14.5440759
-14.38852465
-14.23198913
-14.07447972
-13.9160075
-13.75658356
-13.59622047
-13.43492982
-13.27272794
-13.10962028
-12.94563566
-12.78078793
-12.6150585
-12.44848525
-12.28153767
-9.75802769
-7.36828305
-5.122852784
-3.030466185
-1.099364526
0.6643632123
2.256424431
3.67432728
4.917368567
5.986571209
6.884607047
7.615701089
8.18551778
8.60103374
8.870398797
9.002788547
9.008249939
8.897543024
8.681980991
8.37327044
7.983354595
7.524260336
7.007952056
6.446193027
5.850415875
5.23160419
4.60018487
3.965933963
3.337894426
2.724309064
2.132565707
1.569158123
1.039659463
0.5487105293
0.100020474
-0.3036192568
-0.6603096116
-0.9690070935
-1.229477354
-1.442239794
-1.608504537
-1.730103057
-1.809413827
-1.849284302
-1.852950612
-1.823956334
-1.76607164
-1.683214068
-1.579372141
-1.45853287
-1.324614134
-1.181402884
-1.032499671
-0.8812704327
-0.7308055837
-0.5838869993
-0.4429629052
-0.3101305767
-0.1871269179
-0.07532635706
0.02425418435
0.1109437797
0.1844002111
0.2445874886
0.2917489943
0.3263770862
0.3491800191
0.3610470084
0.3630123399
0.3562192916
0.3418846989
0.3212648617
0.2956234425
0.2662019436
0.2341932107
0.2007183654
0.1668074466
0.1333838897
0.1012529768
0.07109418337
0.04345731452
0.01876221761
-0.002698185988
-0.02075194095
-0.03533951324
-0.04650315115
-0.05437455661
-0.0591613824
-0.06113299448
-0.06060596297
-0.05792970396
-0.05347265992
-0.04760936155
-0.04070866267
-0.03312337575
-0.02518148791
-0.01717906401
-0.009374891034
-0.001986856679
0.004809994565
0.01088383519
0.01614499768
0.02054367672
0.02406657776
0.02673274382
0.02858877484
0.02970366972
0.03016350482
0.03006614986
0.02951619999
0.02862028037
0.02748284762
0.02620258279
0.02486944262
0.02356239957
0.02234787341
0.02127883786
0.02039454905
0.0197208366
0.01927087519
0.01904634871
0.01903891238
0.01923185601
0.01960187591
0.02012087218
0.02075769171
0.02147975411
0.02225450641
0.02305067378
0.02383927657
0.0245944062
0.02529376123
0.02591895428
0.02645561227
0.02689329466
0.02722526329
0.0274481373
0.02756146626
0.02756725502
0.02746946977
0.02727355292
0.026985965
0.02661377326
0.02616429651
0.02564481252
0.02506233124
0.02442343052
0.02373415203
0.02299994733
0.02222566975
0.02141559947
0.02057349633
0.0197026701
0.01880606142
0.0178863273
0.01694592636
0.0159872002
0.01501244732
0.01402398962
0.01302422888
0.01201569393
0.0110010784
0.009983267241
0.00896535566
0.007950656126
0.006942696652
0.005945209051
0.00496210613
0.003997449906
0.003055408681
0.002140205487
0.001256058057
0.0004071110461
-0.0004026365596
-0.001169407945
-0.0018897253
-0.00256048604
-0.00317903388
-0.003743223595
-0.004251478283
-0.004702833878
-0.00509697338
-0.005434248074
-0.005715684698
-0.005942980678
-0.006118487116
-0.00624518032
-0.006326623565
-0.006366921044
-0.006370664493
-0.006342874675
-0.006288938746
-0.006214544576
-0.006125612166
-0.006028223593
-0.005928550779
-0.005832781763
-0.005747045026
-0.005677331939
-0.005629417777
-0.005608780289
-0.005620517835
-0.005669267363
-0.005759122248
-0.005893553588
-0.006075334303
-0.006306470157
-0.006588138269
-0.006920636279
-0.007303343417
-0.00773469565
-0.008212177747
-0.008732330891
-0.009290779197
-0.009882274104
-0.01050075573
-0.01113943209
-0.01179087283
-0.01244711671
-0.01309979002
-0.013740233
-0.01435963136
-0.01494915026
-0.01550006701
-0.01600389947
-0.01645252848
-0.01683831026
-0.01715417897
-0.01739373659
-0.01755132969
-0.01762211325
-0.01760210033
-0.01748819929
-0.01727823678
-0.0169709686
-0.01656607816
-0.01606416288
-0.01546671156
-0.01477607486
-0.01399543493
-0.01312878089
-0.01218089966
-0.01115739037
-0.01006471441
-0.008910298411
-0.007702744362
-0.006452303086
-0.005172117705
-0.003881286907
)
;

boundaryField
{
    inlet
    {
        type            calculated;
        value           uniform -7.492484167e-05;
    }
    outlet
    {
        type            calculated;
        value           uniform -0.002612879271;
    }
    wall
    {
        type            empty;
        value           nonuniform 0();
    }
}


// ************************************************************************* //
