/*--------------------------------*- C++ -*----------------------------------*\
  =========                 |
  \\      /  F ield         | OpenFOAM: The Open Source CFD Toolbox
   \\    /   O peration     | Website:  https://openfoam.org
    \\  /    A nd           | Version:  7
     \\/     M anipulation  |
\*---------------------------------------------------------------------------*/
FoamFile
{
    version     2.0;
    format      ascii;
    class       volScalarField;
    location    "0.000558243009";
    object      H;
}
// * * * * * * * * * * * * * * * * * * * * * * * * * * * * * * * * * * * * * //

dimensions      [0 0 0 0 0 0 0];

internalField   nonuniform List<scalar> 
1500
(
3.738687331e-31
3.37178866e-31
2.903875748e-31
2.495699603e-31
2.21962549e-31
2.060591034e-31
1.979337203e-31
1.941997096e-31
1.926445438e-31
1.920471895e-31
1.918234287e-31
1.917285625e-31
1.916732627e-31
1.916299785e-31
1.915924512e-31
1.915602302e-31
1.915336044e-31
1.915123657e-31
1.914958313e-31
1.914831826e-31
1.914736946e-31
1.914668583e-31
1.914623505e-31
1.914599505e-31
1.914594505e-31
1.91460585e-31
1.91463008e-31
1.914663162e-31
1.914700792e-31
1.914738897e-31
1.914774091e-31
1.914803748e-31
1.914826196e-31
1.914840539e-31
1.914846682e-31
1.914844859e-31
1.914835704e-31
1.914820124e-31
1.914799101e-31
1.9147737e-31
1.914744963e-31
1.914714014e-31
1.914681878e-31
1.914649461e-31
1.914617552e-31
1.91458675e-31
1.914557464e-31
1.914529859e-31
1.914503965e-31
1.914479691e-31
1.914456813e-31
1.914435047e-31
1.914414225e-31
1.914394098e-31
1.914374535e-31
1.914355572e-31
1.914337183e-31
1.914319562e-31
1.914302933e-31
1.914287545e-31
1.91427375e-31
1.914261947e-31
1.914252474e-31
1.914245659e-31
1.914241894e-31
1.914241407e-31
1.914244458e-31
1.91425116e-31
1.914261604e-31
1.914275775e-31
1.914293514e-31
1.914314619e-31
1.914338782e-31
1.914365539e-31
1.914394459e-31
1.914424913e-31
1.914456359e-31
1.91448814e-31
1.91451959e-31
1.914550078e-31
1.914578967e-31
1.914605759e-31
1.914629864e-31
1.914650876e-31
1.914668402e-31
1.914682184e-31
1.914692027e-31
1.9146978e-31
1.914699511e-31
1.914697202e-31
1.914691064e-31
1.914681288e-31
1.914668135e-31
1.914652028e-31
1.914633252e-31
1.914612338e-31
1.914589688e-31
1.914565802e-31
1.914541104e-31
1.914516102e-31
1.914491195e-31
1.914466796e-31
1.914443261e-31
1.914420827e-31
1.914399777e-31
1.914380226e-31
1.914362269e-31
1.914345959e-31
1.914331161e-31
1.914317832e-31
1.914305798e-31
1.914294836e-31
1.914284748e-31
1.914275286e-31
1.914266241e-31
1.914257418e-31
1.914248565e-31
1.914239579e-31
1.914230419e-31
1.914220913e-31
1.914211099e-31
1.914201019e-31
1.914190721e-31
1.914180349e-31
1.91416999e-31
1.914159735e-31
1.914149805e-31
1.914140337e-31
1.914131429e-31
1.914123209e-31
1.914115815e-31
1.914109349e-31
1.914103834e-31
1.914099374e-31
1.914096046e-31
1.914093839e-31
1.914092879e-31
1.914093152e-31
1.914094732e-31
1.914097687e-31
1.914102064e-31
1.914107946e-31
1.91411538e-31
1.914124382e-31
1.914135082e-31
1.914147449e-31
1.914161509e-31
1.914177288e-31
1.914194687e-31
1.914213684e-31
1.914234114e-31
1.914255909e-31
1.914278873e-31
1.914302819e-31
1.9143275e-31
1.914352719e-31
1.914378188e-31
1.914403655e-31
1.91442891e-31
1.914453654e-31
1.914477686e-31
1.914500798e-31
1.914522769e-31
1.91454344e-31
1.914562659e-31
1.914580292e-31
1.914596204e-31
1.914610295e-31
1.914622476e-31
1.914632681e-31
1.914640848e-31
1.914646912e-31
1.914650804e-31
1.914652458e-31
1.914651867e-31
1.914649012e-31
1.91464384e-31
1.914636392e-31
1.914626765e-31
1.914614939e-31
1.914601149e-31
1.914585489e-31
1.914568215e-31
1.914549628e-31
1.914530069e-31
1.914509944e-31
1.914489708e-31
1.914469901e-31
1.914451082e-31
1.914433841e-31
1.914418706e-31
1.91440627e-31
1.914396996e-31
1.91439125e-31
1.914389408e-31
1.914391594e-31
1.914397919e-31
1.914408289e-31
1.914422601e-31
1.914440638e-31
1.914462115e-31
1.914486781e-31
1.914514421e-31
1.9145448e-31
1.914577778e-31
1.914613164e-31
1.914650769e-31
1.914690322e-31
1.914731317e-31
1.914773095e-31
1.914814624e-31
1.914854668e-31
1.914891628e-31
1.914923867e-31
1.914949612e-31
1.914967435e-31
1.914976362e-31
1.914976203e-31
1.914967815e-31
1.914953304e-31
1.914936208e-31
1.914921296e-31
1.914914457e-31
1.914922153e-31
1.914950943e-31
1.915006525e-31
1.91509304e-31
1.915212127e-31
1.915362016e-31
1.915537245e-31
1.915728327e-31
1.915921878e-31
1.916101687e-31
1.916249677e-31
1.916347986e-31
1.916381048e-31
1.916338174e-31
1.916215893e-31
1.916020326e-31
1.915768744e-31
1.915490357e-31
1.915226156e-31
1.915027223e-31
1.914952389e-31
1.915065008e-31
1.915429407e-31
1.916107316e-31
1.917147839e-31
1.918552598e-31
1.920154371e-31
1.920809934e-31
1.920930526e-31
1.921066351e-31
1.921211514e-31
1.921362867e-31
1.921518757e-31
1.921678334e-31
1.921841165e-31
1.922007047e-31
1.92217591e-31
1.922347745e-31
1.922522561e-31
1.922700412e-31
1.922881339e-31
1.923065408e-31
1.923252684e-31
1.923443235e-31
1.923637139e-31
1.923834476e-31
1.924035325e-31
1.924239786e-31
1.924447951e-31
1.924659919e-31
1.924875796e-31
1.925095702e-31
1.925319755e-31
1.925548079e-31
1.925780816e-31
1.926018106e-31
1.926260108e-31
1.926506987e-31
1.926758929e-31
1.927016095e-31
1.927278693e-31
1.927546942e-31
1.927821053e-31
1.928101266e-31
1.928387841e-31
1.928681052e-31
1.928981179e-31
1.929288524e-31
1.929603419e-31
1.929926209e-31
1.930257258e-31
1.930596954e-31
1.930945717e-31
1.931303996e-31
1.931672267e-31
1.932051035e-31
1.932440831e-31
1.932842226e-31
1.933255834e-31
1.933682287e-31
1.934122282e-31
1.934576551e-31
1.935045867e-31
1.935531063e-31
1.936033017e-31
1.936552665e-31
1.937090996e-31
1.937649069e-31
1.938228015e-31
1.938829022e-31
1.939453356e-31
1.940102364e-31
1.940777483e-31
1.941480221e-31
1.942212194e-31
1.942975104e-31
1.943770763e-31
1.944601099e-31
1.945468133e-31
1.946374033e-31
1.947321092e-31
1.948311724e-31
1.94934849e-31
1.950434099e-31
1.951571431e-31
1.952763528e-31
1.954013576e-31
1.955324978e-31
1.956701318e-31
1.958146384e-31
1.959664171e-31
1.961258892e-31
1.962934991e-31
1.964697165e-31
1.966550355e-31
1.968499764e-31
1.97055089e-31
1.972709501e-31
1.974981667e-31
1.977373772e-31
1.979892542e-31
1.982545025e-31
1.985338635e-31
1.988281173e-31
1.991380788e-31
1.994646036e-31
1.99808591e-31
2.001709814e-31
2.005527603e-31
2.009549591e-31
2.013786571e-31
2.018249829e-31
2.022951149e-31
2.027902845e-31
2.033117789e-31
2.0386094e-31
2.04439168e-31
2.050479232e-31
2.056887254e-31
2.063631576e-31
2.070728676e-31
2.078195699e-31
2.08605046e-31
2.094311472e-31
2.102997963e-31
2.112129863e-31
2.121727885e-31
2.131813472e-31
2.142408839e-31
2.153536996e-31
2.165221747e-31
2.177487709e-31
2.190360334e-31
2.203865906e-31
2.218031556e-31
2.232885271e-31
2.248455895e-31
2.264773167e-31
2.28186769e-31
2.29977098e-31
2.318515425e-31
2.338134322e-31
2.358661869e-31
2.380133165e-31
2.402584209e-31
2.426051904e-31
2.45057404e-31
2.47618933e-31
2.50293733e-31
2.530858522e-31
2.559994239e-31
2.590386684e-31
2.622078886e-31
2.655114746e-31
2.689538967e-31
2.725397061e-31
2.762735285e-31
2.801600722e-31
2.842041169e-31
2.884105123e-31
2.927841776e-31
2.973301009e-31
3.020533304e-31
3.069589765e-31
3.120522038e-31
3.173382348e-31
3.228223367e-31
3.285098262e-31
3.344060611e-31
3.405164401e-31
3.468463894e-31
3.534013683e-31
3.601868634e-31
3.672083795e-31
3.744714375e-31
3.81981573e-31
3.897443249e-31
3.977652369e-31
4.060498471e-31
4.146036863e-31
4.234322757e-31
4.325411141e-31
4.419356832e-31
4.516214385e-31
4.616037916e-31
4.718881366e-31
4.82479816e-31
4.933841313e-31
5.046063243e-31
5.16151594e-31
5.280250838e-31
5.402318686e-31
5.527769618e-31
5.656653099e-31
5.789017873e-31
5.924911966e-31
6.064382592e-31
6.207476285e-31
6.354238822e-31
6.504715074e-31
6.658949225e-31
6.81698462e-31
6.978863642e-31
7.144628084e-31
7.314318897e-31
7.487976368e-31
7.665640007e-31
7.847348472e-31
8.033139959e-31
8.22305213e-31
8.417121921e-31
8.615385794e-31
8.817879993e-31
9.024640212e-31
9.235702192e-31
9.45110114e-31
9.670872527e-31
9.895051717e-31
1.012367447e-30
1.035677691e-30
1.059439548e-30
1.083656738e-30
1.108333049e-30
1.133472395e-30
1.159078796e-30
1.185156425e-30
1.211709593e-30
1.238742833e-30
1.266260861e-30
1.294268652e-30
1.322771447e-30
1.351774754e-30
1.381284435e-30
1.411306704e-30
1.441848156e-30
1.472915829e-30
1.504517208e-30
1.536660317e-30
1.569353708e-30
1.60260652e-30
1.636428515e-30
1.67083017e-30
1.705822643e-30
1.741417909e-30
1.777628807e-30
1.814468993e-30
1.851953148e-30
1.890096933e-30
1.928917104e-30
1.968431578e-30
2.008659441e-30
2.04962111e-30
2.091338325e-30
2.133834292e-30
2.17713375e-30
2.22126307e-30
2.266250378e-30
2.312125553e-30
2.358920308e-30
2.406668434e-30
2.455405851e-30
2.505170691e-30
2.556003442e-30
2.60794703e-30
2.661046941e-30
2.715351415e-30
2.770911388e-30
2.827780865e-30
2.886016969e-30
2.945680149e-30
3.0068347e-30
3.069548604e-30
3.133894005e-30
3.199948218e-30
3.267794677e-30
3.337521184e-30
3.409220012e-30
3.482988442e-30
3.558928782e-30
3.637149066e-30
3.71776305e-30
3.800891109e-30
3.886659774e-30
3.9752022e-30
4.066658137e-30
4.161175622e-30
4.25891394e-30
4.36004209e-30
4.464738694e-30
4.573193035e-30
4.685605944e-30
4.802190676e-30
4.923174215e-30
5.048797374e-30
5.179316425e-30
5.315003777e-30
5.456149327e-30
5.6030623e-30
5.756071947e-30
5.915530358e-30
6.081814582e-30
6.255327939e-30
6.436503431e-30
6.625806207e-30
6.823737228e-30
7.03083678e-30
7.247690014e-30
7.474930243e-30
7.71324514e-30
7.963384901e-30
8.226168992e-30
8.502495539e-30
8.793352557e-30
9.099830762e-30
9.423137757e-30
9.764617181e-30
1.012576951e-29
1.050827859e-29
1.091403935e-29
1.134519737e-29
1.180419101e-29
1.229380537e-29
1.281723588e-29
1.337816704e-29
1.398086675e-29
1.463029919e-29
1.533226817e-29
1.609358946e-29
1.692230217e-29
1.782793069e-29
1.882180229e-29
1.991745045e-29
2.11311068e-29
2.248231978e-29
2.399472226e-29
2.569699905e-29
2.762410983e-29
2.981882284e-29
3.233366663e-29
3.523341783e-29
3.859827527e-29
4.252797294e-29
4.714705048e-29
5.261170769e-29
5.911876556e-29
6.69173668e-29
7.63244063e-29
8.774490941e-29
1.016991781e-28
1.188589172e-28
1.400957185e-28
1.665463486e-28
1.997008919e-28
2.415223428e-28
2.946093457e-28
3.624184051e-28
4.495681333e-28
5.622570136e-28
7.088385732e-28
9.006149426e-28
1.15293377e-27
1.486708323e-27
1.930525621e-27
2.52357765e-27
3.319737319e-27
4.393241191e-27
5.846610715e-27
7.821714055e-27
1.051522097e-26
1.420021145e-26
1.925641694e-26
2.621256469e-26
3.580572201e-26
4.906454116e-26
6.742616123e-26
9.290064461e-26
1.283027968e-25
1.775800958e-25
2.462788278e-25
3.422112876e-25
4.764203126e-25
6.645925921e-25
9.291670841e-25
1.302552558e-24
1.832173303e-24
2.588627643e-24
3.679309569e-24
5.271872371e-24
7.635798532e-24
1.121780774e-23
1.678120097e-23
2.566686713e-23
4.028671994e-23
6.506195176e-23
1.082126313e-22
1.851749905e-22
3.251250528e-22
5.834167865e-22
1.065252142e-21
1.97062145e-21
3.679409985e-21
6.912135801e-21
1.303266545e-20
2.461643059e-20
4.651216855e-20
8.781674181e-20
1.655407939e-19
3.114074511e-19
5.84443437e-19
1.094253676e-18
2.043968035e-18
3.809360731e-18
7.084389781e-18
1.314851924e-17
2.435699779e-17
4.50386587e-17
8.313728547e-17
1.532070281e-16
2.818680126e-16
5.177201726e-16
9.493111566e-16
1.737601074e-15
3.174408861e-15
5.787187769e-15
1.052592765e-14
1.909465398e-14
3.453553658e-14
6.225043092e-14
1.117724418e-13
1.998094104e-13
3.554176896e-13
6.286975127e-13
1.105233513e-12
1.92975197e-12
3.344335599e-12
5.74923735e-12
9.798150801e-12
1.654504427e-11
2.766668827e-11
4.579413286e-11
7.499790296e-11
1.21485759e-10
1.945885499e-10
3.081288116e-10
4.822879658e-10
7.461106672e-10
1.140808261e-09
1.724046503e-09
2.57542475e-09
3.803373682e-09
5.553715526e-09
8.020144213e-09
1.145689314e-08
1.619386283e-08
2.265434574e-08
3.137673884e-08
4.303602888e-08
5.848074684e-08
7.875153959e-08
1.051225341e-07
1.390635684e-07
1.823770302e-07
2.371814554e-07
3.05933362e-07
3.914332883e-07
4.968012687e-07
6.255159223e-07
7.815817357e-07
9.696667817e-07
1.195233723e-06
1.464532195e-06
1.785103841e-06
2.16285198e-06
2.606309652e-06
3.12332386e-06
3.722626394e-06
4.409726376e-06
5.19292982e-06
6.078908967e-06
7.074732813e-06
8.182264966e-06
9.40401067e-06
1.07380572e-05
1.217818971e-05
1.371265149e-05
1.532401824e-05
1.699051353e-05
1.868127964e-05
2.03665854e-05
2.201297978e-05
2.359064309e-05
2.50727252e-05
2.643783904e-05
2.767065954e-05
2.876355087e-05
2.971216299e-05
3.051649095e-05
3.118104023e-05
3.171296237e-05
3.212091235e-05
3.241436074e-05
3.260331239e-05
3.269772004e-05
3.270623753e-05
3.263863469e-05
3.25034803e-05
3.230853367e-05
3.206180134e-05
3.177023298e-05
3.144014344e-05
3.107724824e-05
3.068670518e-05
3.027321551e-05
2.984082413e-05
2.939331438e-05
2.893400565e-05
2.846584678e-05
2.799144829e-05
2.751311297e-05
2.703286453e-05
2.655247433e-05
2.60734861e-05
2.55972387e-05
2.512488713e-05
2.46574216e-05
2.419568499e-05
2.374038877e-05
2.32921274e-05
2.285139136e-05
2.241857894e-05
2.199400696e-05
2.157792028e-05
2.117050048e-05
2.07718736e-05
2.038211711e-05
2.000126608e-05
1.962931882e-05
1.926624183e-05
1.891197423e-05
1.85664317e-05
1.822951002e-05
1.790108818e-05
1.758103113e-05
1.726919223e-05
1.696541545e-05
1.666953718e-05
1.638138802e-05
1.610079413e-05
1.582757861e-05
1.556156256e-05
1.530256608e-05
1.505040909e-05
1.48049121e-05
1.456589677e-05
1.43331865e-05
1.410660685e-05
1.388598593e-05
1.367115471e-05
1.346194728e-05
1.325820107e-05
1.305975701e-05
1.286645966e-05
1.267815731e-05
1.249470203e-05
1.231594975e-05
1.214176024e-05
1.197199713e-05
1.180652791e-05
1.164522386e-05
1.148796005e-05
1.133461528e-05
1.118507202e-05
1.103921631e-05
1.089693776e-05
1.075812941e-05
1.062268768e-05
1.049051229e-05
1.036150617e-05
1.023557536e-05
1.011262896e-05
9.992579008e-06
9.875340412e-06
9.76083086e-06
9.648970741e-06
9.53968305e-06
9.432893315e-06
9.328529513e-06
9.226521987e-06
9.126803374e-06
9.029308525e-06
8.933974432e-06
8.840740154e-06
8.749546749e-06
8.660337207e-06
8.573056377e-06
8.48765091e-06
8.404069193e-06
8.322261288e-06
8.242178874e-06
8.163775192e-06
8.087004988e-06
8.011824463e-06
7.938191216e-06
7.866064203e-06
7.795403683e-06
7.726171173e-06
7.658329407e-06
7.591842288e-06
7.526674853e-06
7.462793228e-06
7.400164591e-06
7.338757139e-06
7.278540046e-06
7.219483434e-06
7.161558337e-06
7.104736671e-06
7.048991204e-06
6.994295523e-06
6.940624009e-06
6.887951809e-06
6.836254809e-06
6.78550961e-06
6.735693502e-06
6.68678444e-06
6.638761026e-06
6.59160248e-06
6.545288625e-06
6.499799865e-06
6.455117165e-06
6.411222033e-06
6.3680965e-06
6.325723106e-06
6.28408488e-06
6.243165327e-06
6.202948409e-06
6.163418535e-06
6.124560539e-06
6.086359674e-06
6.048801595e-06
6.011872344e-06
5.975558342e-06
5.939846375e-06
5.90472358e-06
5.870177439e-06
5.836195763e-06
5.802766685e-06
5.76987865e-06
5.737520403e-06
5.705680981e-06
5.674349705e-06
5.643516169e-06
5.613170235e-06
5.583302021e-06
5.553901896e-06
5.524960471e-06
5.496468593e-06
5.468417338e-06
5.440798001e-06
5.413602095e-06
5.386821338e-06
5.360447654e-06
5.334473162e-06
5.308890171e-06
5.283691177e-06
5.258868855e-06
5.234416054e-06
5.210325794e-06
5.186591261e-06
5.163205799e-06
5.140162908e-06
5.117456241e-06
5.095079597e-06
5.073026918e-06
5.051292285e-06
5.029869916e-06
5.008754158e-06
4.987939487e-06
4.967420504e-06
4.94719193e-06
4.927248604e-06
4.907585481e-06
4.888197625e-06
4.869080212e-06
4.850228519e-06
4.831637931e-06
4.813303929e-06
4.795222094e-06
4.777388102e-06
4.75979772e-06
4.742446806e-06
4.725331305e-06
4.70844725e-06
4.691790755e-06
4.675358016e-06
4.659145308e-06
4.643148983e-06
4.627365469e-06
4.611791267e-06
4.596422949e-06
4.581257158e-06
4.566290604e-06
4.551520063e-06
4.536942377e-06
4.522554451e-06
4.50835325e-06
4.494335802e-06
4.48049919e-06
4.466840557e-06
4.453357101e-06
4.440046076e-06
4.426904786e-06
4.41393059e-06
4.401120897e-06
4.388473165e-06
4.375984901e-06
4.363653659e-06
4.351477039e-06
4.339452687e-06
4.327578293e-06
4.315851589e-06
4.30427035e-06
4.292832393e-06
4.281535573e-06
4.270377787e-06
4.259356967e-06
4.248471087e-06
4.237718154e-06
4.227096213e-06
4.216603344e-06
4.206237659e-06
4.195997308e-06
4.18588047e-06
4.175885358e-06
4.166010216e-06
4.156253319e-06
4.146612971e-06
4.137087509e-06
4.127675295e-06
4.11837472e-06
4.109184204e-06
4.100102194e-06
4.091127163e-06
4.082257608e-06
4.073492055e-06
4.064829054e-06
4.056267176e-06
4.047805021e-06
4.039441208e-06
4.031174381e-06
4.023003208e-06
4.014926375e-06
4.006942592e-06
3.999050591e-06
3.991249123e-06
3.98353696e-06
3.975912893e-06
3.968375733e-06
3.960924311e-06
3.953557476e-06
3.946274094e-06
3.939073052e-06
3.931953252e-06
3.924913614e-06
3.917953076e-06
3.911070592e-06
3.904265131e-06
3.89753568e-06
3.89088124e-06
3.88430083e-06
3.877793481e-06
3.871358241e-06
3.864994172e-06
3.858700349e-06
3.852475863e-06
3.846319818e-06
3.840231331e-06
3.834209533e-06
3.828253567e-06
3.82236259e-06
3.816535771e-06
3.810772292e-06
3.805071345e-06
3.799432137e-06
3.793853884e-06
3.788335814e-06
3.782877167e-06
3.777477195e-06
3.772135158e-06
3.76685033e-06
3.761621992e-06
3.756449438e-06
3.751331971e-06
3.746268904e-06
3.741259561e-06
3.736303273e-06
3.731399384e-06
3.726547243e-06
3.721746212e-06
3.71699566e-06
3.712294965e-06
3.707643514e-06
3.703040703e-06
3.698485935e-06
3.693978622e-06
3.689518184e-06
3.685104051e-06
3.680735657e-06
3.676412446e-06
3.672133869e-06
3.667899386e-06
3.663708462e-06
3.659560572e-06
3.655455194e-06
3.651391817e-06
3.647369935e-06
3.643389049e-06
3.639448666e-06
3.635548302e-06
3.631687477e-06
3.627865718e-06
3.624082559e-06
3.620337539e-06
3.616630204e-06
3.612960106e-06
3.609326801e-06
3.605729854e-06
3.602168833e-06
3.598643314e-06
3.595152875e-06
3.591697104e-06
3.58827559e-06
3.58488793e-06
3.581533726e-06
3.578212584e-06
3.574924116e-06
3.571667939e-06
3.568443674e-06
3.565250947e-06
3.56208939e-06
3.558958639e-06
3.555858334e-06
3.55278812e-06
3.549747647e-06
3.546736569e-06
3.543754544e-06
3.540801234e-06
3.537876308e-06
3.534979435e-06
3.532110291e-06
3.529268556e-06
3.526453913e-06
3.523666048e-06
3.520904654e-06
3.518169425e-06
3.515460059e-06
3.512776261e-06
3.510117735e-06
3.507484192e-06
3.504875345e-06
3.502290912e-06
3.499730612e-06
3.49719417e-06
3.494681313e-06
3.492191772e-06
3.489725281e-06
3.487281578e-06
3.484860402e-06
3.482461498e-06
3.480084612e-06
3.477729494e-06
3.475395898e-06
3.47308358e-06
3.470792298e-06
3.468521814e-06
3.466271894e-06
3.464042305e-06
3.461832817e-06
3.459643205e-06
3.457473244e-06
3.455322713e-06
3.453191393e-06
3.451079069e-06
3.448985528e-06
3.446910559e-06
3.444853953e-06
3.442815506e-06
3.440795014e-06
3.438792277e-06
3.436807097e-06
3.434839278e-06
3.432888626e-06
3.43095495e-06
3.429038062e-06
3.427137776e-06
3.425253906e-06
3.423386272e-06
3.421534693e-06
3.419698991e-06
3.417878992e-06
3.416074522e-06
3.414285409e-06
3.412511485e-06
3.410752582e-06
3.409008536e-06
3.407279182e-06
3.405564361e-06
3.403863911e-06
3.402177678e-06
3.400505504e-06
3.398847236e-06
3.397202723e-06
3.395571815e-06
3.393954363e-06
3.392350222e-06
3.390759246e-06
3.389181294e-06
3.387616223e-06
3.386063894e-06
3.38452417e-06
3.382996915e-06
3.381481994e-06
3.379979274e-06
3.378488624e-06
3.377009915e-06
3.375543017e-06
3.374087805e-06
3.372644153e-06
3.371211938e-06
3.369791037e-06
3.36838133e-06
3.366982697e-06
3.365595021e-06
3.364218186e-06
3.362852075e-06
3.361496575e-06
3.360151574e-06
3.358816961e-06
3.357492626e-06
3.35617846e-06
3.354874356e-06
3.353580209e-06
3.352295913e-06
3.351021365e-06
3.349756462e-06
3.348501104e-06
3.347255191e-06
3.346018623e-06
3.344791303e-06
3.343573135e-06
3.342364023e-06
3.341163872e-06
3.339972591e-06
3.338790085e-06
3.337616266e-06
3.336451041e-06
3.335294323e-06
3.334146024e-06
3.333006057e-06
3.331874335e-06
3.330750774e-06
3.329635291e-06
3.328527802e-06
3.327428226e-06
3.326336482e-06
3.32525249e-06
3.324176172e-06
3.32310745e-06
3.322046247e-06
3.320992489e-06
3.319946099e-06
3.318907006e-06
3.317875136e-06
3.31685042e-06
3.315832786e-06
3.314822167e-06
3.313818495e-06
3.312821705e-06
3.311831731e-06
3.310848511e-06
3.309871984e-06
3.308902089e-06
3.30793877e-06
3.306981969e-06
3.306031633e-06
3.305087711e-06
3.304150153e-06
3.303218913e-06
3.302293946e-06
3.301375213e-06
3.300462677e-06
3.299556303e-06
3.298656064e-06
3.297761933e-06
3.296873893e-06
3.295991927e-06
3.295116029e-06
3.294246198e-06
3.293382438e-06
3.292524764e-06
3.2916732e-06
3.290827777e-06
3.289988537e-06
3.289155534e-06
3.288328832e-06
3.287508507e-06
3.286694644e-06
3.285887344e-06
3.279371426e-06
3.269342885e-06
3.26058396e-06
3.252954394e-06
3.246382202e-06
3.240819519e-06
3.236230094e-06
3.232584568e-06
3.229858187e-06
3.228029412e-06
3.227078956e-06
3.22698907e-06
3.227742994e-06
3.229324521e-06
3.23171764e-06
3.234906253e-06
3.238873941e-06
3.243603783e-06
3.249078201e-06
3.255278854e-06
3.262186539e-06
3.269781134e-06
3.278041543e-06
3.28694566e-06
3.296470346e-06
3.306591411e-06
3.317283601e-06
3.328520594e-06
3.34027499e-06
3.352518316e-06
3.365221026e-06
3.378352505e-06
3.391881087e-06
3.405774063e-06
3.419997719e-06
3.43451736e-06
3.449297372e-06
3.464301275e-06
3.479491806e-06
3.494831017e-06
3.510280391e-06
3.525800975e-06
3.541353532e-06
3.556898718e-06
3.572397268e-06
3.587810201e-06
3.603099034e-06
3.618226012e-06
3.633154335e-06
3.647848392e-06
3.662273996e-06
3.676398601e-06
3.690191528e-06
3.70362416e-06
3.716670132e-06
3.729305502e-06
3.741508896e-06
3.753261634e-06
3.764547833e-06
3.775354483e-06
3.7856715e-06
3.795491747e-06
3.804811036e-06
3.813628097e-06
3.821944521e-06
3.829764679e-06
3.837095606e-06
3.843946865e-06
3.85033038e-06
3.856260246e-06
3.861752512e-06
3.866824943e-06
3.871496764e-06
3.875788386e-06
3.87972112e-06
3.883316888e-06
3.886597925e-06
3.889586492e-06
3.892304594e-06
3.894773718e-06
3.897014587e-06
3.899046946e-06
3.90088938e-06
3.90255916e-06
3.90407214e-06
3.905442686e-06
3.906683645e-06
3.907806363e-06
3.908820732e-06
3.909735276e-06
3.910557271e-06
3.911292881e-06
3.911947325e-06
3.912525042e-06
3.913029877e-06
3.91346525e-06
3.91383433e-06
3.914140184e-06
3.914385914e-06
3.914574766e-06
3.914710212e-06
3.914796005e-06
3.914836205e-06
3.914835173e-06
3.914797542e-06
3.914728164e-06
3.914632035e-06
3.91451421e-06
3.914379701e-06
3.91423338e-06
3.914079876e-06
3.913923479e-06
3.913768058e-06
3.913616988e-06
3.913473099e-06
3.913338642e-06
3.913215272e-06
3.913104057e-06
3.913005501e-06
3.912919587e-06
3.912845833e-06
3.912783361e-06
3.912730978e-06
3.912687251e-06
3.9126506e-06
3.912619369e-06
3.912591911e-06
3.912566653e-06
3.912542153e-06
3.912517148e-06
3.912490591e-06
3.912461667e-06
3.912429806e-06
3.912394679e-06
3.912356184e-06
3.912314427e-06
3.912269691e-06
3.912222401e-06
3.912173092e-06
3.91212237e-06
3.912070874e-06
3.912019247e-06
3.911968104e-06
3.911918007e-06
3.911869446e-06
3.91182283e-06
3.911778474e-06
3.911736598e-06
3.911697331e-06
3.911660717e-06
3.911626725e-06
3.911595258e-06
3.911566171e-06
3.91153928e-06
3.911514377e-06
3.911491245e-06
3.911469664e-06
3.911449423e-06
3.911430327e-06
3.911412202e-06
3.911394895e-06
3.911378282e-06
3.911362261e-06
3.911346754e-06
3.911331704e-06
3.911317074e-06
3.911302843e-06
3.911289002e-06
3.911275553e-06
3.911262507e-06
3.911249881e-06
3.911237698e-06
3.911225984e-06
3.911214771e-06
3.911204091e-06
3.911193981e-06
3.91118448e-06
3.911175631e-06
3.911167474e-06
3.911160056e-06
3.911153418e-06
3.911147603e-06
3.91114265e-06
3.911138595e-06
3.911135467e-06
3.911133288e-06
3.911132069e-06
3.911131815e-06
3.911132517e-06
3.911134154e-06
3.911136695e-06
3.911140094e-06
3.911144295e-06
3.91114923e-06
3.911154819e-06
3.911160977e-06
3.911167606e-06
3.911174606e-06
3.91118187e-06
3.911189289e-06
3.911196753e-06
3.911204154e-06
3.911211383e-06
3.911218339e-06
3.911224925e-06
3.911231049e-06
3.911236631e-06
3.911241595e-06
3.911245879e-06
3.911249429e-06
3.911252203e-06
3.911254168e-06
3.911255303e-06
3.911255598e-06
3.911255053e-06
3.911253677e-06
3.91125149e-06
3.911248518e-06
3.911244796e-06
3.911240365e-06
3.911235272e-06
3.911229569e-06
3.911223312e-06
3.911216559e-06
3.91120937e-06
3.911201808e-06
3.911193934e-06
3.911185811e-06
3.911177501e-06
3.911169062e-06
3.911160553e-06
3.91115203e-06
3.911143547e-06
3.911135154e-06
3.911126898e-06
3.911118824e-06
3.911110972e-06
3.911103378e-06
3.911096076e-06
3.911089094e-06
3.911082457e-06
3.911076188e-06
3.911070302e-06
3.911064814e-06
3.911059733e-06
3.911055069e-06
3.911050835e-06
3.911047067e-06
3.911043882e-06
3.911041662e-06
)
;

boundaryField
{
    inlet
    {
        type            fixedValue;
        value           uniform 0;
    }
    outlet
    {
        type            zeroGradient;
    }
    wall
    {
        type            empty;
    }
}


// ************************************************************************* //
