/*--------------------------------*- C++ -*----------------------------------*\
  =========                 |
  \\      /  F ield         | OpenFOAM: The Open Source CFD Toolbox
   \\    /   O peration     | Website:  https://openfoam.org
    \\  /    A nd           | Version:  7
     \\/     M anipulation  |
\*---------------------------------------------------------------------------*/
FoamFile
{
    version     2.0;
    format      ascii;
    class       volScalarField;
    location    "0.000558243009";
    object      H2;
}
// * * * * * * * * * * * * * * * * * * * * * * * * * * * * * * * * * * * * * //

dimensions      [0 0 0 0 0 0 0];

internalField   nonuniform List<scalar> 
1500
(
2.292323133e-08
8.640490169e-08
1.758274466e-07
2.697665679e-07
3.493351063e-07
4.062075075e-07
4.414458294e-07
4.607036427e-07
4.701078502e-07
4.742566276e-07
4.759261017e-07
4.765440743e-07
4.767560478e-07
4.768238565e-07
4.768441981e-07
4.768499482e-07
4.768514864e-07
4.768518773e-07
4.768519719e-07
4.768519938e-07
4.768519987e-07
4.768519997e-07
4.768519999e-07
4.76852e-07
4.76852e-07
4.76852e-07
4.76852e-07
4.76852e-07
4.76852e-07
4.76852e-07
4.76852e-07
4.76852e-07
4.76852e-07
4.76852e-07
4.76852e-07
4.76852e-07
4.76852e-07
4.76852e-07
4.76852e-07
4.76852e-07
4.76852e-07
4.76852e-07
4.76852e-07
4.76852e-07
4.76852e-07
4.76852e-07
4.76852e-07
4.76852e-07
4.76852e-07
4.76852e-07
4.76852e-07
4.76852e-07
4.76852e-07
4.76852e-07
4.76852e-07
4.76852e-07
4.76852e-07
4.76852e-07
4.76852e-07
4.76852e-07
4.76852e-07
4.76852e-07
4.76852e-07
4.76852e-07
4.76852e-07
4.76852e-07
4.76852e-07
4.76852e-07
4.76852e-07
4.76852e-07
4.76852e-07
4.76852e-07
4.76852e-07
4.76852e-07
4.76852e-07
4.76852e-07
4.76852e-07
4.76852e-07
4.76852e-07
4.76852e-07
4.76852e-07
4.76852e-07
4.76852e-07
4.76852e-07
4.76852e-07
4.76852e-07
4.76852e-07
4.76852e-07
4.76852e-07
4.76852e-07
4.76852e-07
4.76852e-07
4.76852e-07
4.76852e-07
4.76852e-07
4.76852e-07
4.76852e-07
4.76852e-07
4.76852e-07
4.76852e-07
4.76852e-07
4.76852e-07
4.76852e-07
4.76852e-07
4.76852e-07
4.76852e-07
4.76852e-07
4.76852e-07
4.76852e-07
4.76852e-07
4.76852e-07
4.76852e-07
4.76852e-07
4.76852e-07
4.76852e-07
4.76852e-07
4.76852e-07
4.76852e-07
4.76852e-07
4.76852e-07
4.76852e-07
4.76852e-07
4.76852e-07
4.76852e-07
4.76852e-07
4.76852e-07
4.76852e-07
4.76852e-07
4.76852e-07
4.76852e-07
4.76852e-07
4.76852e-07
4.76852e-07
4.76852e-07
4.76852e-07
4.76852e-07
4.76852e-07
4.76852e-07
4.76852e-07
4.76852e-07
4.76852e-07
4.76852e-07
4.76852e-07
4.76852e-07
4.76852e-07
4.76852e-07
4.76852e-07
4.76852e-07
4.76852e-07
4.76852e-07
4.76852e-07
4.76852e-07
4.76852e-07
4.76852e-07
4.76852e-07
4.76852e-07
4.76852e-07
4.76852e-07
4.76852e-07
4.76852e-07
4.76852e-07
4.76852e-07
4.76852e-07
4.76852e-07
4.76852e-07
4.76852e-07
4.76852e-07
4.76852e-07
4.76852e-07
4.76852e-07
4.76852e-07
4.76852e-07
4.76852e-07
4.76852e-07
4.76852e-07
4.76852e-07
4.76852e-07
4.76852e-07
4.76852e-07
4.76852e-07
4.76852e-07
4.76852e-07
4.76852e-07
4.76852e-07
4.76852e-07
4.76852e-07
4.76852e-07
4.76852e-07
4.76852e-07
4.76852e-07
4.76852e-07
4.76852e-07
4.76852e-07
4.76852e-07
4.76852e-07
4.76852e-07
4.76852e-07
4.76852e-07
4.76852e-07
4.76852e-07
4.76852e-07
4.76852e-07
4.76852e-07
4.76852e-07
4.76852e-07
4.76852e-07
4.76852e-07
4.76852e-07
4.76852e-07
4.76852e-07
4.76852e-07
4.76852e-07
4.76852e-07
4.76852e-07
4.76852e-07
4.76852e-07
4.76852e-07
4.768520001e-07
4.768520002e-07
4.768520005e-07
4.768520012e-07
4.768520029e-07
4.768520067e-07
4.768520151e-07
4.768520332e-07
4.768520717e-07
4.768521512e-07
4.76852312e-07
4.768526299e-07
4.768532444e-07
4.768544062e-07
4.768565552e-07
4.768604443e-07
4.768673326e-07
4.768792746e-07
4.768995445e-07
4.769332356e-07
4.769880825e-07
4.770755499e-07
4.772122207e-07
4.774214939e-07
4.777355625e-07
4.781975846e-07
4.788638829e-07
4.798059104e-07
4.811116123e-07
4.828856932e-07
4.852481914e-07
4.883306604e-07
4.92269259e-07
4.949024513e-07
4.953209544e-07
4.957486593e-07
4.961858219e-07
4.966326799e-07
4.970894489e-07
4.975563302e-07
4.980335186e-07
4.985212081e-07
4.99019594e-07
4.995288754e-07
5.000492554e-07
5.005809417e-07
5.011241467e-07
5.016790874e-07
5.022459852e-07
5.028250659e-07
5.034165595e-07
5.040206999e-07
5.04637725e-07
5.052678766e-07
5.059114004e-07
5.065685456e-07
5.072395656e-07
5.079247175e-07
5.086242624e-07
5.093384651e-07
5.100675946e-07
5.108119242e-07
5.115717309e-07
5.123472963e-07
5.131389059e-07
5.139468499e-07
5.147714225e-07
5.156129227e-07
5.164716538e-07
5.173479238e-07
5.182420451e-07
5.191543351e-07
5.200851157e-07
5.210347138e-07
5.22003461e-07
5.229916941e-07
5.239997546e-07
5.250279893e-07
5.2607675e-07
5.271463939e-07
5.282372834e-07
5.293497861e-07
5.304842753e-07
5.316411296e-07
5.328207334e-07
5.340234764e-07
5.352497545e-07
5.364999691e-07
5.377745276e-07
5.390738434e-07
5.403983359e-07
5.417484309e-07
5.431245603e-07
5.445271621e-07
5.459566813e-07
5.47413569e-07
5.48898283e-07
5.50411288e-07
5.519530555e-07
5.535240638e-07
5.551247984e-07
5.567557519e-07
5.584174243e-07
5.601103228e-07
5.618349621e-07
5.635918649e-07
5.653815612e-07
5.67204589e-07
5.690614946e-07
5.709528322e-07
5.728791641e-07
5.748410615e-07
5.768391037e-07
5.78873879e-07
5.809459845e-07
5.830560261e-07
5.852046193e-07
5.873923885e-07
5.896199679e-07
5.918880013e-07
5.941971422e-07
5.965480543e-07
5.989414114e-07
6.013778978e-07
6.038582083e-07
6.063830487e-07
6.089531354e-07
6.115691964e-07
6.14231971e-07
6.1694221e-07
6.197006763e-07
6.225081448e-07
6.253654027e-07
6.282732498e-07
6.31232499e-07
6.34243976e-07
6.373085199e-07
6.404269837e-07
6.436002341e-07
6.468291522e-07
6.501146334e-07
6.534575882e-07
6.568589421e-07
6.603196361e-07
6.63840627e-07
6.674228877e-07
6.710674079e-07
6.747751938e-07
6.78547269e-07
6.823846747e-07
6.862884703e-07
6.902597334e-07
6.942995606e-07
6.984090677e-07
7.025893903e-07
7.068416841e-07
7.111671255e-07
7.155669122e-07
7.200422631e-07
7.245944198e-07
7.292246462e-07
7.339342294e-07
7.387244806e-07
7.43596735e-07
7.48552353e-07
7.535927204e-07
7.587192491e-07
7.639333781e-07
7.692365736e-07
7.746303303e-07
7.801161713e-07
7.856956498e-07
7.913703491e-07
7.971418836e-07
8.030118996e-07
8.089820764e-07
8.150541265e-07
8.212297971e-07
8.275108706e-07
8.338991656e-07
8.403965381e-07
8.470048822e-07
8.537261309e-07
8.605622579e-07
8.675152777e-07
8.745872475e-07
8.817802679e-07
8.890964842e-07
8.965380875e-07
9.041073161e-07
9.118064567e-07
9.196378456e-07
9.276038703e-07
9.357069707e-07
9.439496407e-07
9.523344294e-07
9.608639429e-07
9.69540846e-07
9.783678634e-07
9.873477815e-07
9.964834507e-07
1.005777786e-06
1.015233771e-06
1.024854455e-06
1.034642963e-06
1.04460249e-06
1.054736307e-06
1.06504776e-06
1.075540279e-06
1.086217371e-06
1.097082631e-06
1.108139737e-06
1.119392459e-06
1.130844657e-06
1.142500284e-06
1.154363393e-06
1.166438135e-06
1.178728764e-06
1.191239638e-06
1.203975227e-06
1.216940112e-06
1.230138987e-06
1.243576667e-06
1.257258089e-06
1.271188316e-06
1.28537254e-06
1.299816086e-06
1.314524417e-06
1.329503139e-06
1.344758002e-06
1.360294905e-06
1.376119905e-06
1.392239217e-06
1.408659219e-06
1.425386458e-06
1.442427658e-06
1.45978972e-06
1.47747973e-06
1.495504966e-06
1.513872902e-06
1.532591213e-06
1.551667784e-06
1.571110716e-06
1.590928329e-06
1.611129173e-06
1.631722033e-06
1.652715937e-06
1.674120162e-06
1.695944245e-06
1.718197987e-06
1.740891464e-06
1.764035034e-06
1.787639346e-06
1.811715352e-06
1.836274311e-06
1.861327802e-06
1.886887733e-06
1.912966355e-06
1.939576265e-06
1.966730424e-06
1.994442164e-06
2.022725203e-06
2.051593654e-06
2.08106204e-06
2.111145305e-06
2.141858829e-06
2.17321844e-06
2.205240429e-06
2.237941566e-06
2.271339111e-06
2.305450835e-06
2.340295032e-06
2.375890539e-06
2.41225675e-06
2.449413633e-06
2.487381756e-06
2.526182294e-06
2.565837059e-06
2.606368516e-06
2.647799802e-06
2.690154751e-06
2.733457913e-06
2.777734582e-06
2.823010813e-06
2.869313451e-06
2.916670156e-06
2.965109429e-06
3.014660635e-06
3.065354039e-06
3.117220826e-06
3.170293138e-06
3.224604101e-06
3.280187858e-06
3.337079601e-06
3.395315605e-06
3.454933263e-06
3.515971118e-06
3.578468907e-06
3.642467596e-06
3.708009421e-06
3.77513793e-06
3.843898022e-06
3.914335992e-06
3.986499574e-06
4.06043799e-06
4.136201997e-06
4.213843936e-06
4.293417787e-06
4.374979217e-06
4.458585641e-06
4.54429627e-06
4.632172171e-06
4.722276334e-06
4.814673736e-06
4.909431397e-06
5.006618448e-06
5.106306198e-06
5.208568215e-06
5.313480395e-06
5.421121038e-06
5.531570919e-06
5.644913373e-06
5.761234374e-06
5.880622625e-06
6.003169645e-06
6.128969859e-06
6.258120698e-06
6.390722693e-06
6.526879578e-06
6.66669839e-06
6.810289584e-06
6.957767136e-06
7.109248665e-06
7.264855546e-06
7.424713035e-06
7.588950396e-06
7.757701029e-06
7.931102607e-06
8.109297215e-06
8.292431491e-06
8.480656778e-06
8.674129276e-06
8.873010197e-06
9.077465934e-06
9.287668227e-06
9.503794335e-06
9.726027219e-06
9.954555727e-06
1.018957479e-05
1.04312856e-05
1.067989585e-05
1.093561991e-05
1.119867907e-05
1.146930175e-05
1.174772375e-05
1.203418845e-05
1.232894711e-05
1.263225909e-05
1.294439214e-05
1.326562265e-05
1.359623593e-05
1.393652652e-05
1.428679848e-05
1.46473657e-05
1.501855224e-05
1.540069261e-05
1.579413216e-05
1.619922742e-05
1.661634644e-05
1.70458692e-05
1.748818798e-05
1.794370776e-05
1.841284662e-05
1.88960362e-05
1.939372212e-05
1.99063644e-05
2.043443802e-05
2.09784333e-05
2.153885645e-05
2.211623011e-05
2.271109381e-05
2.332400459e-05
2.395553752e-05
2.46062863e-05
2.527686385e-05
2.596790295e-05
2.668005685e-05
2.741399998e-05
2.817042854e-05
2.895006129e-05
2.975364022e-05
3.05819313e-05
3.143572525e-05
3.231583832e-05
3.322311309e-05
3.415841929e-05
3.512265468e-05
3.61167459e-05
3.714164937e-05
3.81983522e-05
3.928787314e-05
4.041126351e-05
4.156960822e-05
4.276402671e-05
4.3995674e-05
4.526574172e-05
4.65754591e-05
4.792609407e-05
4.931895427e-05
5.075538811e-05
5.223678584e-05
5.376458054e-05
5.534024916e-05
5.696531353e-05
5.864134126e-05
6.036994667e-05
6.21527916e-05
6.39915862e-05
6.588808953e-05
6.784411013e-05
6.986150636e-05
7.194218662e-05
7.408810932e-05
7.630128261e-05
7.858376381e-05
8.093765845e-05
8.336511899e-05
8.586834294e-05
8.844957051e-05
9.111108162e-05
9.38551921e-05
9.668424913e-05
9.960062566e-05
0.0001026067138
0.000105704917
0.0001088976406
0.0001121872813
0.0001155762145
0.0001190667804
0.0001226612669
0.0001263618917
0.0001301707815
0.0001340899482
0.0001381212641
0.0001422664329
0.0001465269599
0.0001509041189
0.0001553989176
0.0001600120619
0.0001647439186
0.0001695944787
0.0001745633214
0.0001796495798
0.0001848519105
0.0001901684678
0.0001955968845
0.00020113426
0.0002067771584
0.0002125216176
0.000218363169
0.0002242968708
0.0002303173532
0.0002364188752
0.0002425953935
0.0002488406403
0.0002551482084
0.000261511642
0.0002679245299
0.0002743805986
0.0002808738031
0.0002873984129
0.0002939490921
0.0003005209718
0.0003071097142
0.0003137115685
0.0003203234193
0.0003269428261
0.0003335680592
0.0003401981326
0.0003468328389
0.0003534723457
0.0003601192877
0.0003667731878
0.0003734446005
0.0003801367698
0.0003868566286
0.0003935735651
0.0004003162496
0.0004070875308
0.0004138870026
0.0004207071448
0.0004275275807
0.0004343155242
0.0004410317322
0.0004476351271
0.000454086075
0.0004603422082
0.0004664041546
0.0004721036176
0.0004774058497
0.0004822051659
0.0004864052886
0.0004898084574
0.0004923166732
0.00049382733
0.0004942769731
0.0004936308404
0.000491894729
0.0004890968735
0.0004852773657
0.0004804836737
0.0004747692482
0.0004681927572
0.0004608587554
0.0004528638881
0.0004443509219
0.000435455071
0.0004263215205
0.0004170889428
0.00040788286
0.0003987874202
0.0003898941915
0.0003812883727
0.0003730192823
0.0003651174218
0.0003575991562
0.0003504694027
0.000343723083
0.0003373482422
0.0003313327694
0.0003256807501
0.0003203428255
0.0003152823477
0.0003104951299
0.0003059586992
0.0003016514726
0.0002975532296
0.000293645325
0.0002899116332
0.000286334958
0.000282902236
0.0002796009094
0.0002764197056
0.0002733485306
0.0002703783665
0.0002675011719
0.0002647097881
0.0002619978501
0.0002593597038
0.0002567903293
0.0002542852711
0.0002518405737
0.0002494527239
0.0002471185986
0.000244835418
0.0002426007039
0.0002404122425
0.0002382680514
0.0002361663505
0.000234105536
0.0002320841584
0.0002301009021
0.000228154568
0.0002262440588
0.0002243683652
0.0002225265546
0.0002207177609
0.0002189411761
0.0002171960426
0.0002154816463
0.0002137973116
0.0002121423963
0.0002105162873
0.0002089183971
0.0002073481609
0.0002058050338
0.0002042884886
0.0002027980141
0.0002013331131
0.0001998933014
0.0001984781066
0.0001970870668
0.0001957197303
0.0001943756545
0.0001930544055
0.0001917555575
0.0001904786928
0.0001892234008
0.0001879892783
0.0001867759291
0.0001855829637
0.0001844099992
0.0001832566592
0.0001821225738
0.0001810073793
0.0001799107181
0.000178832239
0.0001777715965
0.0001767284516
0.0001757024708
0.0001746933267
0.0001737006978
0.0001727242685
0.0001717637287
0.0001708187741
0.0001698891063
0.0001689744321
0.0001680744642
0.0001671889206
0.0001663175248
0.0001654600057
0.0001646160973
0.0001637855392
0.0001629680759
0.000162163457
0.0001613714374
0.0001605917766
0.0001598242392
0.0001590685946
0.000158324617
0.000157592085
0.0001568707821
0.0001561604962
0.0001554610195
0.0001547721486
0.0001540936846
0.0001534254324
0.0001527672014
0.0001521188047
0.0001514800597
0.0001508507874
0.0001502308126
0.0001496199641
0.0001490180741
0.0001484249784
0.0001478405164
0.000147264531
0.0001466968681
0.0001461373773
0.0001455859112
0.0001450423255
0.0001445064791
0.0001439782339
0.0001434574546
0.000142944009
0.0001424377675
0.0001419386033
0.0001414463923
0.0001409610132
0.0001404823469
0.0001400102772
0.0001395446901
0.000139085474
0.0001386325198
0.0001381857205
0.0001377449714
0.00013731017
0.0001368812161
0.0001364580112
0.0001360404591
0.0001356284655
0.0001352219382
0.0001348207866
0.0001344249222
0.0001340342582
0.0001336487096
0.000133268193
0.0001328926269
0.0001325219314
0.000132156028
0.00013179484
0.0001314382922
0.0001310863107
0.0001307388233
0.0001303957591
0.0001300570487
0.0001297226239
0.000129392418
0.0001290663656
0.0001287444023
0.0001284264654
0.000128112493
0.0001278024246
0.0001274962008
0.0001271937634
0.0001268950552
0.00012660002
0.0001263086031
0.0001260207503
0.0001257364086
0.0001254555262
0.000125178052
0.0001249039359
0.0001246331289
0.0001243655825
0.0001241012496
0.0001238400836
0.0001235820389
0.0001233270706
0.0001230751347
0.0001228261881
0.0001225801881
0.0001223370932
0.0001220968624
0.0001218594555
0.0001216248328
0.0001213929557
0.0001211637858
0.0001209372858
0.0001207134188
0.0001204921485
0.0001202734394
0.0001200572565
0.0001198435654
0.0001196323324
0.0001194235241
0.0001192171079
0.0001190130516
0.0001188113238
0.0001186118933
0.0001184147295
0.0001182198025
0.0001180270826
0.0001178365408
0.0001176481486
0.0001174618777
0.0001172777005
0.0001170955897
0.0001169155186
0.0001167374608
0.0001165613904
0.0001163872817
0.0001162151097
0.0001160448497
0.0001158764772
0.0001157099684
0.0001155452995
0.0001153824474
0.0001152213892
0.0001150621024
0.0001149045647
0.0001147487544
0.0001145946499
0.00011444223
0.000114291474
0.0001141423611
0.0001139948712
0.0001138489843
0.0001137046807
0.0001135619412
0.0001134207466
0.0001132810781
0.0001131429173
0.0001130062458
0.0001128710456
0.0001127372992
0.0001126049888
0.0001124740975
0.0001123446081
0.0001122165039
0.0001120897685
0.0001119643856
0.0001118403391
0.0001117176133
0.0001115961925
0.0001114760614
0.0001113572048
0.0001112396078
0.0001111232556
0.0001110081337
0.0001108942278
0.0001107815237
0.0001106700075
0.0001105596653
0.0001104504837
0.0001103424492
0.0001102355487
0.000110129769
0.0001100250974
0.0001099215211
0.0001098190276
0.0001097176046
0.0001096172398
0.0001095179212
0.000109419637
0.0001093223755
0.000109226125
0.0001091308741
0.0001090366116
0.0001089433264
0.0001088510074
0.0001087596438
0.000108669225
0.0001085797403
0.0001084911793
0.0001084035318
0.0001083167875
0.0001082309364
0.0001081459686
0.0001080618743
0.0001079786438
0.0001078962676
0.0001078147363
0.0001077340405
0.0001076541711
0.0001075751189
0.000107496875
0.0001074194305
0.0001073427766
0.0001072669048
0.0001071918065
0.0001071174733
0.0001070438967
0.0001069710686
0.0001068989808
0.0001068276254
0.0001067569943
0.0001066870797
0.0001066178738
0.0001065493691
0.0001064815579
0.0001064144327
0.0001063479863
0.0001062822111
0.0001062171002
0.0001061526462
0.0001060888422
0.0001060256813
0.0001059631564
0.0001059012609
0.0001058399879
0.0001057793309
0.0001057192833
0.0001056598386
0.0001056009904
0.0001055427323
0.0001054850581
0.0001054279615
0.0001053714365
0.000105315477
0.0001052600771
0.0001052052307
0.0001051509321
0.0001050971754
0.000105043955
0.0001049912652
0.0001049391004
0.0001048874551
0.0001048363239
0.0001047857013
0.000104735582
0.0001046859608
0.0001046368323
0.0001045881916
0.0001045400333
0.0001044923527
0.0001044451445
0.000104398404
0.0001043521262
0.0001043063064
0.0001042609397
0.0001042160214
0.000104171547
0.0001041275117
0.0001040839111
0.0001040407406
0.0001039979959
0.0001039556724
0.0001039137658
0.0001038722719
0.0001038311864
0.0001037905051
0.0001037502237
0.0001037103383
0.0001036708447
0.0001036317389
0.000103593017
0.000103554675
0.000103516709
0.0001034791152
0.0001034418898
0.000103405029
0.0001033685291
0.0001033323864
0.0001032965974
0.0001032611583
0.0001032260657
0.0001031913161
0.0001031569059
0.0001031228318
0.0001030890903
0.0001030556781
0.0001030225919
0.0001029898284
0.0001029573844
0.0001029252566
0.0001028934418
0.0001028619371
0.0001028307392
0.000102799845
0.0001027692517
0.0001027389561
0.0001027089553
0.0001026792464
0.0001026498265
0.0001026206927
0.0001025918423
0.0001025632724
0.0001025349802
0.0001025069631
0.0001024792183
0.0001024517432
0.0001024245351
0.0001023975915
0.0001023709097
0.0001023444873
0.0001023183217
0.0001022924105
0.0001022667511
0.0001022413412
0.0001022161783
0.0001021912602
0.0001021665844
0.0001021421486
0.0001021179507
0.0001020939882
0.0001020702591
0.000102046761
0.0001020234919
0.0001020004495
0.0001019776318
0.0001019550367
0.000101932662
0.0001019105059
0.0001018885661
0.0001018668408
0.000101845328
0.0001018240257
0.000101802932
0.0001017820451
0.000101761363
0.000101740884
0.0001017206061
0.0001017005277
0.0001016806469
0.0001016609619
0.0001016414712
0.0001016221728
0.0001016030652
0.0001015841468
0.0001015654158
0.0001015468706
0.0001015285098
0.0001015103316
0.0001014923345
0.0001014745171
0.0001014568777
0.000101439415
0.0001014221274
0.0001014050135
0.000101388072
0.0001013713012
0.0001013547
0.0001013382669
0.0001013220006
0.0001013058997
0.000101289963
0.0001012741891
0.0001012585769
0.000101243125
0.0001012278322
0.0001012126973
0.0001011977191
0.0001011828965
0.0001011682282
0.0001011537132
0.0001011393503
0.0001011251385
0.0001011110765
0.0001010971635
0.0001010833983
0.0001010697799
0.0001010563072
0.0001010429794
0.0001010297953
0.0001010167541
0.0001010038547
0.0001009910963
0.0001009784779
0.0001009659987
0.0001009536577
0.0001009414542
0.0001009293871
0.0001009174558
0.0001009056593
0.0001008939969
0.0001008824678
0.0001008710712
0.0001008598063
0.0001008486725
0.0001008376689
0.0001008267948
0.0001008160496
0.0001008054326
0.0001007949431
0.0001007845803
0.0001007743438
0.0001007642328
0.0001007542467
0.0001007443849
0.0001007346467
0.0001007250317
0.0001007155392
0.0001007061687
0.0001006969195
0.0001006877912
0.0001006787831
0.0001006698948
0.0001006611257
0.0001006524752
0.0001006439429
0.0001006355281
0.0001006272304
0.0001006190492
0.0001006109839
0.0001006030341
0.0001005951991
0.0001005874783
0.0001005798713
0.0001005723774
0.000100564996
0.0001005577265
0.0001005505683
0.0001004932123
0.000100415974
0.0001003616788
0.0001003297476
0.0001003197626
0.0001003315179
0.0001003649718
0.0001004202019
0.0001004973749
0.0001005967264
0.000100718546
0.0001008631666
0.0001010309548
0.0001012223037
0.0001014376256
0.0001016773461
0.000101941898
0.0001022317165
0.0001025472329
0.0001028888703
0.0001032570371
0.0001036521224
0.0001040744896
0.0001045244705
0.0001050023586
0.0001055084024
0.0001060427977
0.0001066056802
0.0001071971171
0.0001078170984
0.000108465528
0.000109142215
0.0001098468636
0.0001105790649
0.0001113382867
0.0001121238657
0.0001129349992
0.0001137707373
0.000114629977
0.0001155114572
0.0001164137547
0.0001173352831
0.0001182742922
0.0001192288712
0.0001201969528
0.0001211763208
0.00012216462
0.0001231593686
0.0001241579734
0.0001251577476
0.0001261559308
0.0001271497114
0.0001281362507
0.0001291127088
0.0001300762714
0.0001310241775
0.0001319537468
0.0001328624077
0.0001337477233
0.000134607417
0.0001354393955
0.0001362417699
0.0001370128735
0.0001377512769
0.0001384557998
0.0001391255178
0.0001397597675
0.0001403581455
0.0001409205058
0.0001414469517
0.0001419378254
0.0001423936941
0.0001428153332
0.0001432037075
0.0001435599503
0.0001438853411
0.000144181282
0.0001444492749
0.0001446908968
0.0001449077775
0.000145101577
0.0001452739645
0.0001454265992
0.0001455611123
0.000145679092
0.0001457820695
0.0001458715083
0.0001459487946
0.0001460152314
0.0001460720327
0.0001461203218
0.0001461611296
0.0001461953958
0.0001462239707
0.0001462476186
0.0001462670218
0.0001462827861
0.0001462954455
0.0001463054688
0.000146313265
0.0001463191895
0.0001463235499
0.0001463266114
0.000146328602
0.0001463297174
0.0001463301251
0.0001463299684
0.0001463293696
0.0001463284331
0.0001463272477
0.0001463258887
0.0001463244194
0.000146322893
0.0001463213534
0.0001463198364
0.0001463183702
0.0001463169764
0.0001463156706
0.000146314463
0.0001463133588
0.0001463123592
0.0001463114614
0.0001463106599
0.0001463099465
0.0001463093112
0.0001463087428
0.0001463082293
0.0001463077588
0.0001463073195
0.0001463069003
0.0001463064914
0.0001463060844
0.0001463056721
0.0001463052493
0.0001463048125
0.0001463043595
0.00014630389
0.0001463034049
0.0001463029062
0.000146302397
0.0001463018809
0.0001463013622
0.000146300845
0.0001463003336
0.0001462998322
0.0001462993443
0.0001462988732
0.0001462984215
0.0001462979909
0.0001462975829
0.0001462971981
0.0001462968365
0.0001462964978
0.000146296181
0.0001462958848
0.000146295608
0.0001462953487
0.0001462951054
0.0001462948764
0.0001462946599
0.0001462944545
0.0001462942589
0.0001462940719
0.0001462938923
0.0001462937196
0.0001462935529
0.000146293392
0.0001462932363
0.0001462930859
0.0001462929406
0.0001462928005
0.0001462926657
0.0001462925365
0.0001462924131
0.0001462922958
0.000146292185
0.0001462920811
0.0001462919844
0.0001462918954
0.0001462918145
0.0001462917421
0.0001462916786
0.0001462916243
0.0001462915796
0.0001462915447
0.0001462915198
0.0001462915049
0.0001462915002
0.0001462915053
0.0001462915202
0.0001462915445
0.0001462915777
0.0001462916192
0.0001462916684
0.0001462917245
0.0001462917866
0.0001462918536
0.0001462919247
0.0001462919987
0.0001462920745
0.000146292151
0.0001462922271
0.0001462923016
0.0001462923735
0.0001462924419
0.0001462925057
0.0001462925641
0.0001462926163
0.0001462926617
0.0001462926996
0.0001462927296
0.0001462927514
0.0001462927648
0.0001462927695
0.0001462927655
0.000146292753
0.0001462927322
0.0001462927032
0.0001462926664
0.0001462926223
0.0001462925713
0.000146292514
0.0001462924509
0.0001462923826
0.0001462923098
0.0001462922331
0.0001462921531
0.0001462920705
0.000146291986
0.0001462919002
0.0001462918136
0.0001462917269
0.0001462916406
0.0001462915553
0.0001462914714
0.0001462913895
0.0001462913098
0.0001462912329
0.0001462911589
0.0001462910883
0.0001462910213
0.000146290958
0.0001462908987
0.0001462908435
0.0001462907924
0.0001462907456
0.0001462907033
0.0001462906659
0.0001462906351
0.0001462906151
)
;

boundaryField
{
    inlet
    {
        type            fixedValue;
        value           uniform 0;
    }
    outlet
    {
        type            zeroGradient;
    }
    wall
    {
        type            empty;
    }
}


// ************************************************************************* //
