/*--------------------------------*- C++ -*----------------------------------*\
  =========                 |
  \\      /  F ield         | OpenFOAM: The Open Source CFD Toolbox
   \\    /   O peration     | Website:  https://openfoam.org
    \\  /    A nd           | Version:  7
     \\/     M anipulation  |
\*---------------------------------------------------------------------------*/
FoamFile
{
    version     2.0;
    format      ascii;
    class       volScalarField;
    location    "0.000558243009";
    object      H2_0;
}
// * * * * * * * * * * * * * * * * * * * * * * * * * * * * * * * * * * * * * //

dimensions      [0 0 0 0 0 0 0];

internalField   nonuniform List<scalar> 
1500
(
2.29352713e-08
8.644405884e-08
1.758911116e-07
2.698393215e-07
3.494005363e-07
4.062564343e-07
4.41477208e-07
4.607212587e-07
4.701166427e-07
4.742605794e-07
4.759277185e-07
4.76544682e-07
4.767562593e-07
4.768239251e-07
4.768442189e-07
4.768499542e-07
4.76851488e-07
4.768518777e-07
4.76851972e-07
4.768519938e-07
4.768519987e-07
4.768519997e-07
4.768519999e-07
4.76852e-07
4.76852e-07
4.76852e-07
4.76852e-07
4.76852e-07
4.76852e-07
4.76852e-07
4.76852e-07
4.76852e-07
4.76852e-07
4.76852e-07
4.76852e-07
4.76852e-07
4.76852e-07
4.76852e-07
4.76852e-07
4.76852e-07
4.76852e-07
4.76852e-07
4.76852e-07
4.76852e-07
4.76852e-07
4.76852e-07
4.76852e-07
4.76852e-07
4.76852e-07
4.76852e-07
4.76852e-07
4.76852e-07
4.76852e-07
4.76852e-07
4.76852e-07
4.76852e-07
4.76852e-07
4.76852e-07
4.76852e-07
4.76852e-07
4.76852e-07
4.76852e-07
4.76852e-07
4.76852e-07
4.76852e-07
4.76852e-07
4.76852e-07
4.76852e-07
4.76852e-07
4.76852e-07
4.76852e-07
4.76852e-07
4.76852e-07
4.76852e-07
4.76852e-07
4.76852e-07
4.76852e-07
4.76852e-07
4.76852e-07
4.76852e-07
4.76852e-07
4.76852e-07
4.76852e-07
4.76852e-07
4.76852e-07
4.76852e-07
4.76852e-07
4.76852e-07
4.76852e-07
4.76852e-07
4.76852e-07
4.76852e-07
4.76852e-07
4.76852e-07
4.76852e-07
4.76852e-07
4.76852e-07
4.76852e-07
4.76852e-07
4.76852e-07
4.76852e-07
4.76852e-07
4.76852e-07
4.76852e-07
4.76852e-07
4.76852e-07
4.76852e-07
4.76852e-07
4.76852e-07
4.76852e-07
4.76852e-07
4.76852e-07
4.76852e-07
4.76852e-07
4.76852e-07
4.76852e-07
4.76852e-07
4.76852e-07
4.76852e-07
4.76852e-07
4.76852e-07
4.76852e-07
4.76852e-07
4.76852e-07
4.76852e-07
4.76852e-07
4.76852e-07
4.76852e-07
4.76852e-07
4.76852e-07
4.76852e-07
4.76852e-07
4.76852e-07
4.76852e-07
4.76852e-07
4.76852e-07
4.76852e-07
4.76852e-07
4.76852e-07
4.76852e-07
4.76852e-07
4.76852e-07
4.76852e-07
4.76852e-07
4.76852e-07
4.76852e-07
4.76852e-07
4.76852e-07
4.76852e-07
4.76852e-07
4.76852e-07
4.76852e-07
4.76852e-07
4.76852e-07
4.76852e-07
4.76852e-07
4.76852e-07
4.76852e-07
4.76852e-07
4.76852e-07
4.76852e-07
4.76852e-07
4.76852e-07
4.76852e-07
4.76852e-07
4.76852e-07
4.76852e-07
4.76852e-07
4.76852e-07
4.76852e-07
4.76852e-07
4.76852e-07
4.76852e-07
4.76852e-07
4.76852e-07
4.76852e-07
4.76852e-07
4.76852e-07
4.76852e-07
4.76852e-07
4.76852e-07
4.76852e-07
4.76852e-07
4.76852e-07
4.76852e-07
4.76852e-07
4.76852e-07
4.76852e-07
4.76852e-07
4.76852e-07
4.76852e-07
4.76852e-07
4.76852e-07
4.76852e-07
4.76852e-07
4.76852e-07
4.76852e-07
4.76852e-07
4.76852e-07
4.76852e-07
4.76852e-07
4.76852e-07
4.76852e-07
4.76852e-07
4.76852e-07
4.76852e-07
4.76852e-07
4.76852e-07
4.76852e-07
4.76852e-07
4.76852e-07
4.76852e-07
4.76852e-07
4.76852e-07
4.76852e-07
4.76852e-07
4.76852e-07
4.768520001e-07
4.768520002e-07
4.768520005e-07
4.768520012e-07
4.768520029e-07
4.768520067e-07
4.76852015e-07
4.768520332e-07
4.768520716e-07
4.768521511e-07
4.768523118e-07
4.768526295e-07
4.768532437e-07
4.768544051e-07
4.768565535e-07
4.768604418e-07
4.768673293e-07
4.768792708e-07
4.768995413e-07
4.769332356e-07
4.769880911e-07
4.770755774e-07
4.772122851e-07
4.774216252e-07
4.777358088e-07
4.781980196e-07
4.788646155e-07
4.798070962e-07
4.811134657e-07
4.828885002e-07
4.852523206e-07
4.8833657e-07
4.922774833e-07
4.949125521e-07
4.953311824e-07
4.957590208e-07
4.961963726e-07
4.966434679e-07
4.971005059e-07
4.975676755e-07
4.980451641e-07
4.985331614e-07
4.990318609e-07
4.995414606e-07
5.000621635e-07
5.005941775e-07
5.011377153e-07
5.016929944e-07
5.022602367e-07
5.028396685e-07
5.034315201e-07
5.040360258e-07
5.04653424e-07
5.052839565e-07
5.059278693e-07
5.06585412e-07
5.072568378e-07
5.079424042e-07
5.086423723e-07
5.093570071e-07
5.100865779e-07
5.108313577e-07
5.11591624e-07
5.123676584e-07
5.131597466e-07
5.139681788e-07
5.147932495e-07
5.156352578e-07
5.164945072e-07
5.173713058e-07
5.182659662e-07
5.191788059e-07
5.20110147e-07
5.210603166e-07
5.220296464e-07
5.230184734e-07
5.240271393e-07
5.250559911e-07
5.261053808e-07
5.271756656e-07
5.282672082e-07
5.293803764e-07
5.305155436e-07
5.316730887e-07
5.328533962e-07
5.340568561e-07
5.352838643e-07
5.365348225e-07
5.378101383e-07
5.391102253e-07
5.404355031e-07
5.417863977e-07
5.431633411e-07
5.445667718e-07
5.459971346e-07
5.474548811e-07
5.489404692e-07
5.504543639e-07
5.519970368e-07
5.535689665e-07
5.551706387e-07
5.568025462e-07
5.584651892e-07
5.601590752e-07
5.618847192e-07
5.636426439e-07
5.654333797e-07
5.672574649e-07
5.691154459e-07
5.710078772e-07
5.729353214e-07
5.748983498e-07
5.768975421e-07
5.789334869e-07
5.810067813e-07
5.831180318e-07
5.852678539e-07
5.874568724e-07
5.896857218e-07
5.91955046e-07
5.94265499e-07
5.966177446e-07
5.990124571e-07
6.014503209e-07
6.039320312e-07
6.06458294e-07
6.090298261e-07
6.116473558e-07
6.143116226e-07
6.170233778e-07
6.197833845e-07
6.225924179e-07
6.254512656e-07
6.283607279e-07
6.313216176e-07
6.343347611e-07
6.374009978e-07
6.40521181e-07
6.436961778e-07
6.469268696e-07
6.502141523e-07
6.535589367e-07
6.569621486e-07
6.604247296e-07
6.639476367e-07
6.675318434e-07
6.711783396e-07
6.74888132e-07
6.786622447e-07
6.825017194e-07
6.864076157e-07
6.903810119e-07
6.944230048e-07
6.985347109e-07
7.027172662e-07
7.069718268e-07
7.112995698e-07
7.157016931e-07
7.201794165e-07
7.247339817e-07
7.293666535e-07
7.340787194e-07
7.38871491e-07
7.437463043e-07
7.487045202e-07
7.53747525e-07
7.588767314e-07
7.640935788e-07
7.693995342e-07
7.747960927e-07
7.802847783e-07
7.858671448e-07
7.915447761e-07
7.973192873e-07
8.031923256e-07
8.091655707e-07
8.152407362e-07
8.214195697e-07
8.277038546e-07
8.340954104e-07
8.405960936e-07
8.472077992e-07
8.539324613e-07
8.607720542e-07
8.677285934e-07
8.74804137e-07
8.820007864e-07
8.89320688e-07
8.967660338e-07
9.043390631e-07
9.120420636e-07
9.198773727e-07
9.27847379e-07
9.359545233e-07
9.442013007e-07
9.525902616e-07
9.611240131e-07
9.698052212e-07
9.786366118e-07
9.876209728e-07
9.967611556e-07
1.006060077e-06
1.015520721e-06
1.02514614e-06
1.034939458e-06
1.044903873e-06
1.055042657e-06
1.065359159e-06
1.075856808e-06
1.086539115e-06
1.097409675e-06
1.10847217e-06
1.119730368e-06
1.131188133e-06
1.142849421e-06
1.154718286e-06
1.166798879e-06
1.179095457e-06
1.191612383e-06
1.204354125e-06
1.217325268e-06
1.230530508e-06
1.243974663e-06
1.257662671e-06
1.271599598e-06
1.285790638e-06
1.30024112e-06
1.314956509e-06
1.329942412e-06
1.345204583e-06
1.360748925e-06
1.376581496e-06
1.392708514e-06
1.409136361e-06
1.425871588e-06
1.442920921e-06
1.460291263e-06
1.477989706e-06
1.496023531e-06
1.514400213e-06
1.533127435e-06
1.552213083e-06
1.571665261e-06
1.591492296e-06
1.61170274e-06
1.632305383e-06
1.653309257e-06
1.674723645e-06
1.696558088e-06
1.71882239e-06
1.741526634e-06
1.764681182e-06
1.78829669e-06
1.812384113e-06
1.836954717e-06
1.862020086e-06
1.887592136e-06
1.91368312e-06
1.940305645e-06
1.967472676e-06
1.995197554e-06
2.023494001e-06
2.05237614e-06
2.081858499e-06
2.11195603e-06
2.142684121e-06
2.174058608e-06
2.20609579e-06
2.238812444e-06
2.272225841e-06
2.306353759e-06
2.341214504e-06
2.376826918e-06
2.413210408e-06
2.450384952e-06
2.488371126e-06
2.527190118e-06
2.56686375e-06
2.607414498e-06
2.648865511e-06
2.691240635e-06
2.734564433e-06
2.77886221e-06
2.824160035e-06
2.870484767e-06
2.91786408e-06
2.966326486e-06
3.01590137e-06
3.066619007e-06
3.118510601e-06
3.171608308e-06
3.225945271e-06
3.281555648e-06
3.338474652e-06
3.396738577e-06
3.456384837e-06
3.517451987e-06
3.579979782e-06
3.64400922e-06
3.709582546e-06
3.776743329e-06
3.845536501e-06
3.916008376e-06
3.988206709e-06
4.062180745e-06
4.137981265e-06
4.215660638e-06
4.295272867e-06
4.376873645e-06
4.460520415e-06
4.546272432e-06
4.634190769e-06
4.724338435e-06
4.816780458e-06
4.911583892e-06
5.008817894e-06
5.108553793e-06
5.210865191e-06
5.315828028e-06
5.423520641e-06
5.534023844e-06
5.647421006e-06
5.763798139e-06
5.883243984e-06
6.005850099e-06
6.13171095e-06
6.260924009e-06
6.39358985e-06
6.52981225e-06
6.669698291e-06
6.813358473e-06
6.960906819e-06
7.112460994e-06
7.268142423e-06
7.428076412e-06
7.592392274e-06
7.76122346e-06
7.934707697e-06
8.112987122e-06
8.296208428e-06
8.484523013e-06
8.678087132e-06
8.877062057e-06
9.081614237e-06
9.29191547e-06
9.508143077e-06
9.730480078e-06
9.959115384e-06
1.019424398e-05
1.043606714e-05
1.06847926e-05
1.094063481e-05
1.120381511e-05
1.1474562e-05
1.175311132e-05
1.203970655e-05
1.2334599e-05
1.263804811e-05
1.295032167e-05
1.327169615e-05
1.360245692e-05
1.394289861e-05
1.429332533e-05
1.465405104e-05
1.502539986e-05
1.540770636e-05
1.580131597e-05
1.620658527e-05
1.662388238e-05
1.705358734e-05
1.749609248e-05
1.795180284e-05
1.842113656e-05
1.890452533e-05
1.940241482e-05
1.991526511e-05
2.04435512e-05
2.098776347e-05
2.154840817e-05
2.212600795e-05
2.272110239e-05
2.333424856e-05
2.396602152e-05
2.461701501e-05
2.528784195e-05
2.597913513e-05
2.669154778e-05
2.742575431e-05
2.818245091e-05
2.896235632e-05
2.976621247e-05
3.05947853e-05
3.144886546e-05
3.232926912e-05
3.323683877e-05
3.417244407e-05
3.513698266e-05
3.613138105e-05
3.715659551e-05
3.8213613e-05
3.930345209e-05
4.042716391e-05
4.158583314e-05
4.278057899e-05
4.401255622e-05
4.528295617e-05
4.659300775e-05
4.794397856e-05
4.933717585e-05
5.077394764e-05
5.225568372e-05
5.37838167e-05
5.535982302e-05
5.698522393e-05
5.866158644e-05
6.039052419e-05
6.217369832e-05
6.401281819e-05
6.590964202e-05
6.786597743e-05
6.98836818e-05
7.196466245e-05
7.411087661e-05
7.632433117e-05
7.860708204e-05
8.096123328e-05
8.338893567e-05
8.589238494e-05
8.847381934e-05
9.113551663e-05
9.387979031e-05
9.670898496e-05
9.962547072e-05
0.0001026316366
0.0001057298825
0.0001089226102
0.0001122122122
0.0001156010593
0.0001190914867
0.0001226857767
0.0001263861411
0.0001301946997
0.0001341134573
0.0001381442779
0.0001422888566
0.000146548689
0.0001509250384
0.0001554189014
0.0001600309716
0.0001647616029
0.0001696107723
0.0001745780444
0.0001796625371
0.0001848628911
0.0001901772447
0.0001956032141
0.0002011378828
0.0002067777993
0.0002125189864
0.000218356962
0.0002242867722
0.0002303030369
0.0002364000074
0.000242571635
0.0002488116495
0.0002551136444
0.0002614711675
0.0002678778143
0.0002743273206
0.000280813653
0.000287331094
0.0002938743211
0.0003004384775
0.0003070192345
0.0003136128457
0.0003202161944
0.0003268268342
0.0003334430283
0.0003400637926
0.0003466889555
0.0003533185128
0.0003599558041
0.0003665991661
0.000373262088
0.0003799475382
0.0003866644587
0.0003933729072
0.00040010842
0.0004068738887
0.0004136691042
0.0004204866833
0.0004273063577
0.0004340955699
0.0004408155195
0.0004474253809
0.0004538879131
0.0004601522892
0.0004662413287
0.000471956487
0.0004772789822
0.0004821021157
0.000486343088
0.0004897836463
0.000492335361
0.000493892157
0.000494396883
0.0004937936435
0.0004920954707
0.0004893283946
0.0004855316677
0.0004807526216
0.0004750464187
0.0004684790186
0.0004611470598
0.0004531496318
0.000444630122
0.0004357232718
0.0004265736828
0.0004173199905
0.000408086971
0.0003989695592
0.0003900499412
0.0003814162612
0.0003731192549
0.0003651913857
0.0003576502775
0.0003505020575
0.0003437420668
0.0003373597812
0.0003313413996
0.0003256804152
0.0003203367052
0.0003152797422
0.0003104969106
0.0003059653408
0.0003016632858
0.0002975704524
0.0002936681399
0.000289939555
0.0002863685429
0.0002829413631
0.000279645361
0.0002764691806
0.000273402663
0.0002704367439
0.0002675633538
0.0002647753213
0.0002620662816
0.0002594305912
0.0002568632487
0.0002543598225
0.0002519163851
0.0002495294531
0.0002471959346
0.0002449130809
0.0002426784442
0.0002404898395
0.000238345312
0.0002362431071
0.0002341816446
0.0002321594964
0.0002301753663
0.0002282280728
0.0002263165339
0.0002244397541
0.000222596813
0.0002207868551
0.0002190090815
0.0002172627424
0.0002155471309
0.0002138615771
0.0002122054438
0.000210578122
0.0002089790278
0.0002074075994
0.0002058632942
0.0002043455871
0.0002028539684
0.0002013879422
0.0001999470253
0.000198530746
0.0001971386431
0.000195770265
0.0001944251696
0.0001931029229
0.0001918030993
0.0001905252808
0.0001892690568
0.0001880340238
0.0001868197854
0.0001856259517
0.0001844521396
0.0001832979723
0.0001821630795
0.0001810470971
0.0001799496672
0.0001788704379
0.0001778090637
0.0001767652048
0.0001757385275
0.000174728704
0.0001737354123
0.0001727583364
0.0001717971658
0.0001708515959
0.0001699213277
0.0001690060678
0.0001681055284
0.0001672194272
0.0001663474874
0.0001654894373
0.0001646450108
0.0001638139471
0.0001629959902
0.0001621908896
0.0001613983997
0.0001606182798
0.0001598502942
0.000159094212
0.0001583498071
0.0001576168578
0.0001568951474
0.0001561844633
0.0001554845978
0.000154795347
0.0001541165118
0.000153447897
0.0001527893115
0.0001521405685
0.0001515014849
0.0001508718817
0.0001502515834
0.0001496404186
0.0001490382192
0.0001484448211
0.0001478600633
0.0001472837884
0.0001467158425
0.0001461560747
0.0001456043376
0.0001450604867
0.0001445243807
0.0001439958814
0.0001434748534
0.0001429611643
0.0001424546843
0.0001419552865
0.0001414628469
0.0001409772437
0.0001404983579
0.0001400260732
0.0001395602753
0.0001391008526
0.0001386476959
0.0001382006981
0.0001377597545
0.0001373247623
0.0001368956212
0.0001364722327
0.0001360545006
0.0001356423304
0.0001352356297
0.000134834308
0.0001344382766
0.0001340474486
0.0001336617391
0.0001332810645
0.0001329053433
0.0001325344953
0.0001321684422
0.0001318071071
0.0001314504147
0.0001310982911
0.0001307506641
0.0001304074627
0.0001300686173
0.0001297340598
0.0001294037235
0.0001290775427
0.0001287554532
0.0001284373921
0.0001281232975
0.0001278131088
0.0001275067666
0.0001272042127
0.0001269053897
0.0001266102417
0.0001263187135
0.0001260307511
0.0001257463016
0.0001254653128
0.0001251877339
0.0001249135146
0.0001246426058
0.0001243749592
0.0001241105275
0.0001238492641
0.0001235911233
0.0001233360602
0.0001230840309
0.0001228349921
0.0001225889012
0.0001223457166
0.0001221053973
0.000121867903
0.0001216331941
0.0001214012319
0.000121171978
0.0001209453951
0.0001207214462
0.000120500095
0.0001202813061
0.0001200650443
0.0001198512753
0.0001196399653
0.0001194310809
0.0001192245896
0.0001190204591
0.0001188186578
0.0001186191548
0.0001184219193
0.0001182269214
0.0001180341314
0.0001178435204
0.0001176550596
0.0001174687209
0.0001172844767
0.0001171022997
0.000116922163
0.0001167440403
0.0001165679057
0.0001163937336
0.0001162214988
0.0001160511765
0.0001158827425
0.0001157161728
0.0001155514436
0.0001153885319
0.0001152274146
0.0001150680693
0.0001149104737
0.0001147546061
0.0001146004448
0.0001144479687
0.000114297157
0.000114147989
0.0001140004444
0.0001138545035
0.0001137101463
0.0001135673537
0.0001134261066
0.000113286386
0.0001131481735
0.0001130114509
0.0001128762001
0.0001127424034
0.0001126100433
0.0001124791026
0.0001123495644
0.0001122214118
0.0001120946284
0.0001119691979
0.0001118451042
0.0001117223316
0.0001116008645
0.0001114806874
0.0001113617853
0.0001112441431
0.0001111277462
0.0001110125799
0.00011089863
0.0001107858823
0.0001106743227
0.0001105639377
0.0001104547135
0.0001103466369
0.0001102396945
0.0001101338733
0.0001100291605
0.0001099255434
0.0001098230095
0.0001097215463
0.0001096211417
0.0001095217837
0.0001094234603
0.0001093261599
0.0001092298709
0.0001091345818
0.0001090402814
0.0001089469586
0.0001088546023
0.0001087632018
0.0001086727463
0.0001085832252
0.0001084946281
0.0001084069448
0.000108320165
0.0001082342786
0.0001081492759
0.0001080651469
0.000107981882
0.0001078994717
0.0001078179066
0.0001077371772
0.0001076572744
0.0001075781892
0.0001074999125
0.0001074224355
0.0001073457494
0.0001072698456
0.0001071947156
0.0001071203508
0.000107046743
0.000106973884
0.0001069017655
0.0001068303795
0.0001067597182
0.0001066897736
0.000106620538
0.0001065520038
0.0001064841633
0.0001064170091
0.0001063505338
0.0001062847302
0.0001062195908
0.0001061551088
0.0001060912769
0.0001060280883
0.000105965536
0.0001059036133
0.0001058423134
0.0001057816296
0.0001057215555
0.0001056620845
0.0001056032102
0.0001055449262
0.0001054872263
0.0001054301043
0.0001053735541
0.0001053175696
0.0001052621448
0.0001052072738
0.0001051529508
0.0001050991699
0.0001050459256
0.000104993212
0.0001049410236
0.000104889355
0.0001048382006
0.000104787555
0.0001047374129
0.0001046877691
0.0001046386183
0.0001045899553
0.0001045417751
0.0001044940726
0.0001044468429
0.000104400081
0.000104353782
0.0001043079411
0.0001042625535
0.0001042176146
0.0001041731197
0.0001041290642
0.0001040854435
0.0001040422531
0.0001039994886
0.0001039571456
0.0001039152196
0.0001038737066
0.000103832602
0.0001037919019
0.0001037516019
0.000103711698
0.0001036721861
0.0001036330622
0.0001035943224
0.0001035559626
0.000103517979
0.0001034803678
0.0001034431251
0.0001034062473
0.0001033697305
0.0001033335711
0.0001032977654
0.00010326231
0.0001032272012
0.0001031924355
0.0001031580094
0.0001031239196
0.0001030901626
0.000103056735
0.0001030236336
0.000102990855
0.0001029583961
0.0001029262536
0.0001028944243
0.0001028629052
0.000102831693
0.0001028007848
0.0001027701775
0.0001027398682
0.0001027098538
0.0001026801315
0.0001026506983
0.0001026215515
0.0001025926881
0.0001025641054
0.0001025358006
0.000102507771
0.0001024800139
0.0001024525266
0.0001024253066
0.0001023983511
0.0001023716577
0.0001023452238
0.0001023190468
0.0001022931243
0.0001022674539
0.0001022420331
0.0001022168595
0.0001021919308
0.0001021672446
0.0001021427986
0.0001021185905
0.0001020946181
0.0001020708791
0.0001020473714
0.0001020240928
0.0001020010411
0.0001019782142
0.0001019556101
0.0001019332266
0.0001019110617
0.0001018891134
0.0001018673797
0.0001018458586
0.0001018245482
0.0001018034466
0.0001017825519
0.0001017618622
0.0001017413757
0.0001017210906
0.000101701005
0.0001016811171
0.0001016614254
0.0001016419279
0.000101622623
0.0001016035091
0.0001015845844
0.0001015658474
0.0001015472963
0.0001015289297
0.0001015107459
0.0001014927435
0.0001014749208
0.0001014572763
0.0001014398086
0.0001014225163
0.0001014053978
0.0001013884517
0.0001013716767
0.0001013550713
0.0001013386343
0.0001013223641
0.0001013062596
0.0001012903194
0.0001012745422
0.0001012589268
0.0001012434718
0.0001012281762
0.0001012130386
0.000101198058
0.000101183233
0.0001011685625
0.0001011540455
0.0001011396808
0.0001011254673
0.0001011114038
0.0001010974895
0.0001010837231
0.0001010701037
0.0001010566302
0.0001010433017
0.0001010301171
0.0001010170755
0.000101004176
0.0001009914177
0.0001009787995
0.0001009663207
0.0001009539803
0.0001009417774
0.0001009297113
0.000100917781
0.0001009059858
0.0001008943249
0.0001008827974
0.0001008714027
0.0001008601398
0.0001008490082
0.000100838007
0.0001008271356
0.0001008163933
0.0001008057793
0.0001007952931
0.0001007849338
0.0001007747011
0.0001007645941
0.0001007546123
0.000100744755
0.0001007350218
0.000100725412
0.0001007159251
0.0001007065605
0.0001006973176
0.0001006881961
0.0001006791953
0.0001006703148
0.000100661554
0.0001006529125
0.0001006443898
0.0001006359853
0.0001006276987
0.0001006195295
0.000100611477
0.000100603541
0.0001005957207
0.0001005880157
0.0001005804254
0.0001005729493
0.0001005655866
0.0001005583366
0.0001005511987
0.0001004940109
0.0001004169153
0.0001003628906
0.0001003312867
0.0001003216532
0.0001003337769
0.0001003676125
0.0001004232344
0.0001005008069
0.0001006005628
0.0001007227901
0.0001008678199
0.0001010360178
0.0001012277758
0.000101443506
0.0001016836337
0.0001019485923
0.000102238817
0.0001025547404
0.000102896786
0.0001032653638
0.0001036608638
0.0001040836507
0.0001045340574
0.0001050123787
0.0001055188639
0.0001060537097
0.0001066170523
0.0001072089591
0.0001078294199
0.0001084783382
0.0001091555219
0.0001098606741
0.0001105933837
0.0001113531164
0.000112139206
0.0001129508465
0.0001137870844
0.0001146468126
0.0001155287655
0.0001164315155
0.0001173534712
0.0001182928776
0.0001192478189
0.0001202162229
0.0001211958689
0.0001221843973
0.0001231793223
0.0001241780473
0.0001251778823
0.0001261760648
0.0001271697815
0.0001281561929
0.000129132459
0.000130095766
0.0001310433543
0.000131972546
0.0001328807723
0.0001337655997
0.0001346247559
0.0001354561521
0.0001362579046
0.000137028352
0.0001377660708
0.0001384698861
0.0001391388798
0.0001397723938
0.0001403700309
0.0001409316502
0.0001414573604
0.0001419475086
0.0001424026663
0.0001428236132
0.0001432113176
0.000143566916
0.0001438916904
0.0001441870453
0.0001444544839
0.0001446955847
0.0001449119782
0.0001451053246
0.0001452772931
0.0001454295423
0.0001455637029
0.0001456813617
0.000145784049
0.0001458732264
0.0001459502789
0.0001460165073
0.0001460731242
0.0001461212507
0.0001461619161
0.0001461960581
0.0001462245252
0.0001462480801
0.0001462674034
0.0001462830994
0.0001462957007
0.0001463056748
0.0001463134296
0.0001463193193
0.0001463236507
0.0001463266882
0.0001463286589
0.000146329758
0.0001463301525
0.0001463299852
0.000146329378
0.0001463284349
0.0001463272445
0.0001463258817
0.0001463244098
0.0001463228817
0.0001463213412
0.0001463198239
0.0001463183578
0.0001463169645
0.0001463156596
0.0001463144529
0.0001463133499
0.0001463123514
0.0001463114548
0.0001463106544
0.0001463099419
0.0001463093075
0.0001463087398
0.0001463082269
0.0001463077568
0.0001463073176
0.0001463068985
0.0001463064896
0.0001463060823
0.0001463056697
0.0001463052466
0.0001463048092
0.0001463043558
0.0001463038858
0.0001463034002
0.000146302901
0.0001463023914
0.0001463018749
0.0001463013558
0.0001463008383
0.0001463003267
0.0001462998251
0.0001462993371
0.000146298866
0.0001462984141
0.0001462979836
0.0001462975757
0.0001462971909
0.0001462968294
0.0001462964907
0.0001462961739
0.0001462958779
0.0001462956011
0.0001462953419
0.0001462950987
0.0001462948696
0.0001462946532
0.0001462944479
0.0001462942523
0.0001462940652
0.0001462938857
0.000146293713
0.0001462935464
0.0001462933854
0.0001462932298
0.0001462930794
0.0001462929341
0.0001462927941
0.0001462926593
0.0001462925301
0.0001462924068
0.0001462922895
0.0001462921788
0.0001462920749
0.0001462919783
0.0001462918893
0.0001462918085
0.0001462917361
0.0001462916727
0.0001462916184
0.0001462915738
0.0001462915389
0.000146291514
0.0001462914992
0.0001462914945
0.0001462914996
0.0001462915146
0.0001462915388
0.000146291572
0.0001462916136
0.0001462916628
0.0001462917188
0.0001462917808
0.0001462918479
0.0001462919189
0.0001462919929
0.0001462920687
0.0001462921451
0.0001462922212
0.0001462922957
0.0001462923676
0.0001462924359
0.0001462924997
0.0001462925581
0.0001462926104
0.0001462926558
0.0001462926938
0.0001462927239
0.0001462927458
0.0001462927592
0.0001462927641
0.0001462927603
0.000146292748
0.0001462927274
0.0001462926987
0.0001462926622
0.0001462926184
0.0001462925677
0.0001462925107
0.000146292448
0.0001462923801
0.0001462923077
0.0001462922314
0.0001462921519
0.0001462920698
0.0001462919858
0.0001462919004
0.0001462918143
0.0001462917281
0.0001462916423
0.0001462915575
0.0001462914741
0.0001462913925
0.0001462913133
0.0001462912368
0.0001462911633
0.0001462910931
0.0001462910265
0.0001462909636
0.0001462909046
0.0001462908496
0.0001462907988
0.0001462907523
0.0001462907101
0.000146290673
0.0001462906423
0.0001462906224
)
;

boundaryField
{
    inlet
    {
        type            fixedValue;
        value           uniform 0;
    }
    outlet
    {
        type            zeroGradient;
    }
    wall
    {
        type            empty;
    }
}


// ************************************************************************* //
