/*--------------------------------*- C++ -*----------------------------------*\
  =========                 |
  \\      /  F ield         | OpenFOAM: The Open Source CFD Toolbox
   \\    /   O peration     | Website:  https://openfoam.org
    \\  /    A nd           | Version:  7
     \\/     M anipulation  |
\*---------------------------------------------------------------------------*/
FoamFile
{
    version     2.0;
    format      ascii;
    class       volScalarField;
    location    "0.000558243009";
    object      H2O;
}
// * * * * * * * * * * * * * * * * * * * * * * * * * * * * * * * * * * * * * //

dimensions      [0 0 0 0 0 0 0];

internalField   nonuniform List<scalar> 
1500
(
5.82783162e-10
2.284619919e-09
4.727398552e-09
7.146805533e-09
8.996396037e-09
1.015852084e-08
1.078111705e-08
1.107216775e-08
1.119285408e-08
1.123782274e-08
1.125304357e-08
1.125776693e-08
1.125912138e-08
1.125948271e-08
1.12595729e-08
1.125959408e-08
1.125959877e-08
1.125959976e-08
1.125959995e-08
1.125959999e-08
1.12596e-08
1.12596e-08
1.12596e-08
1.12596e-08
1.12596e-08
1.12596e-08
1.12596e-08
1.12596e-08
1.12596e-08
1.12596e-08
1.12596e-08
1.12596e-08
1.12596e-08
1.12596e-08
1.12596e-08
1.12596e-08
1.12596e-08
1.12596e-08
1.12596e-08
1.12596e-08
1.12596e-08
1.12596e-08
1.12596e-08
1.12596e-08
1.12596e-08
1.12596e-08
1.12596e-08
1.12596e-08
1.12596e-08
1.12596e-08
1.12596e-08
1.12596e-08
1.12596e-08
1.12596e-08
1.12596e-08
1.12596e-08
1.12596e-08
1.12596e-08
1.12596e-08
1.12596e-08
1.12596e-08
1.12596e-08
1.12596e-08
1.12596e-08
1.12596e-08
1.12596e-08
1.12596e-08
1.12596e-08
1.12596e-08
1.12596e-08
1.12596e-08
1.12596e-08
1.12596e-08
1.12596e-08
1.12596e-08
1.12596e-08
1.12596e-08
1.12596e-08
1.12596e-08
1.12596e-08
1.12596e-08
1.12596e-08
1.12596e-08
1.12596e-08
1.12596e-08
1.12596e-08
1.12596e-08
1.12596e-08
1.12596e-08
1.12596e-08
1.12596e-08
1.12596e-08
1.12596e-08
1.12596e-08
1.12596e-08
1.12596e-08
1.12596e-08
1.12596e-08
1.12596e-08
1.12596e-08
1.12596e-08
1.12596e-08
1.12596e-08
1.12596e-08
1.12596e-08
1.12596e-08
1.12596e-08
1.12596e-08
1.12596e-08
1.12596e-08
1.12596e-08
1.12596e-08
1.12596e-08
1.12596e-08
1.12596e-08
1.12596e-08
1.12596e-08
1.12596e-08
1.12596e-08
1.12596e-08
1.12596e-08
1.12596e-08
1.12596e-08
1.12596e-08
1.12596e-08
1.12596e-08
1.12596e-08
1.12596e-08
1.12596e-08
1.12596e-08
1.12596e-08
1.12596e-08
1.12596e-08
1.12596e-08
1.12596e-08
1.12596e-08
1.12596e-08
1.12596e-08
1.12596e-08
1.12596e-08
1.12596e-08
1.12596e-08
1.12596e-08
1.12596e-08
1.12596e-08
1.12596e-08
1.12596e-08
1.12596e-08
1.12596e-08
1.12596e-08
1.12596e-08
1.12596e-08
1.12596e-08
1.12596e-08
1.12596e-08
1.12596e-08
1.12596e-08
1.12596e-08
1.12596e-08
1.12596e-08
1.12596e-08
1.12596e-08
1.12596e-08
1.12596e-08
1.12596e-08
1.12596e-08
1.12596e-08
1.12596e-08
1.12596e-08
1.12596e-08
1.12596e-08
1.12596e-08
1.12596e-08
1.12596e-08
1.12596e-08
1.12596e-08
1.12596e-08
1.12596e-08
1.12596e-08
1.12596e-08
1.12596e-08
1.12596e-08
1.12596e-08
1.12596e-08
1.12596e-08
1.12596e-08
1.12596e-08
1.12596e-08
1.12596e-08
1.12596e-08
1.12596e-08
1.12596e-08
1.12596e-08
1.12596e-08
1.12596e-08
1.12596e-08
1.12596e-08
1.12596e-08
1.12596e-08
1.12596e-08
1.12596e-08
1.12596e-08
1.12596e-08
1.12596e-08
1.12596e-08
1.12596e-08
1.12596e-08
1.12596e-08
1.12596e-08
1.12596e-08
1.12596e-08
1.12596e-08
1.12596e-08
1.12596e-08
1.12596e-08
1.12596e-08
1.12596e-08
1.12596e-08
1.12596e-08
1.12596e-08
1.12596e-08
1.12596e-08
1.12596e-08
1.12596e-08
1.12596e-08
1.12596e-08
1.12596e-08
1.12596e-08
1.12596e-08
1.12596e-08
1.12596e-08
1.12596e-08
1.125960001e-08
1.125960002e-08
1.125960007e-08
1.125960022e-08
1.12596007e-08
1.125960208e-08
1.125960595e-08
1.125961623e-08
1.12596423e-08
1.125970515e-08
1.125984909e-08
1.126016154e-08
1.126080241e-08
1.126203892e-08
1.126426748e-08
1.126797558e-08
1.127354764e-08
1.128074928e-08
1.128443722e-08
1.128529222e-08
1.1286181e-08
1.128710554e-08
1.128806749e-08
1.128906846e-08
1.129011007e-08
1.129119406e-08
1.129232229e-08
1.129349671e-08
1.129471939e-08
1.129599251e-08
1.129731836e-08
1.129869931e-08
1.130013785e-08
1.13016366e-08
1.130319826e-08
1.130482567e-08
1.130652181e-08
1.130828976e-08
1.131013277e-08
1.131205421e-08
1.131405761e-08
1.131614666e-08
1.13183252e-08
1.132059724e-08
1.132296698e-08
1.132543877e-08
1.132801718e-08
1.133070696e-08
1.133351306e-08
1.133644063e-08
1.133949508e-08
1.134268199e-08
1.134600721e-08
1.134947682e-08
1.135309716e-08
1.135687482e-08
1.136081666e-08
1.136492981e-08
1.136922172e-08
1.13737001e-08
1.137837298e-08
1.138324872e-08
1.1388336e-08
1.139364382e-08
1.139918157e-08
1.140495895e-08
1.141098609e-08
1.141727344e-08
1.142383191e-08
1.143067277e-08
1.143780772e-08
1.144524892e-08
1.145300893e-08
1.146110079e-08
1.146953803e-08
1.147833463e-08
1.148750508e-08
1.149706439e-08
1.150702808e-08
1.151741221e-08
1.152823341e-08
1.153950885e-08
1.155125629e-08
1.15634941e-08
1.157624124e-08
1.158951731e-08
1.160334253e-08
1.161773778e-08
1.163272463e-08
1.164832531e-08
1.166456276e-08
1.168146061e-08
1.169904325e-08
1.171733581e-08
1.173636415e-08
1.175615494e-08
1.177673561e-08
1.179813441e-08
1.18203804e-08
1.184350347e-08
1.186753438e-08
1.189250472e-08
1.191844698e-08
1.194539452e-08
1.197338163e-08
1.200244349e-08
1.203261624e-08
1.206393693e-08
1.20964436e-08
1.213017524e-08
1.216517184e-08
1.220147437e-08
1.223912481e-08
1.227816617e-08
1.231864246e-08
1.236059876e-08
1.240408119e-08
1.244913693e-08
1.249581421e-08
1.254416238e-08
1.259423183e-08
1.264607408e-08
1.269974173e-08
1.275528849e-08
1.28127692e-08
1.287223981e-08
1.293375739e-08
1.299738014e-08
1.306316742e-08
1.313117969e-08
1.320147857e-08
1.327412684e-08
1.334918839e-08
1.342672828e-08
1.35068127e-08
1.3589509e-08
1.367488568e-08
1.376301235e-08
1.385395981e-08
1.394779997e-08
1.404460588e-08
1.414445173e-08
1.424741282e-08
1.435356561e-08
1.446298766e-08
1.457575762e-08
1.46919553e-08
1.481166157e-08
1.49349584e-08
1.506192887e-08
1.519265712e-08
1.532722837e-08
1.54657289e-08
1.560824606e-08
1.575486824e-08
1.590568486e-08
1.60607864e-08
1.622026434e-08
1.638421118e-08
1.655272044e-08
1.672588664e-08
1.690380529e-08
1.708657288e-08
1.72742869e-08
1.74670458e-08
1.766494901e-08
1.786809693e-08
1.807659091e-08
1.829053328e-08
1.851002731e-08
1.873517727e-08
1.896608834e-08
1.920286671e-08
1.944561951e-08
1.969445487e-08
1.99494819e-08
2.021081069e-08
2.047855235e-08
2.075281901e-08
2.103372384e-08
2.132138106e-08
2.161590597e-08
2.1917415e-08
2.222602567e-08
2.254185671e-08
2.286502801e-08
2.319566072e-08
2.353387727e-08
2.387980139e-08
2.423355821e-08
2.459527428e-08
2.496507764e-08
2.534309788e-08
2.572946619e-08
2.612431548e-08
2.652778042e-08
2.693999753e-08
2.736110527e-08
2.779124414e-08
2.823055679e-08
2.867918812e-08
2.913728538e-08
2.960499831e-08
3.008247927e-08
3.056988335e-08
3.106736856e-08
3.157509592e-08
3.209322969e-08
3.262193747e-08
3.316139042e-08
3.371176341e-08
3.427323526e-08
3.484598889e-08
3.54302116e-08
3.60260952e-08
3.663383633e-08
3.725363665e-08
3.788570313e-08
3.853024828e-08
3.918749044e-08
3.98576541e-08
4.054097013e-08
4.123767618e-08
4.194801691e-08
4.267224444e-08
4.341061858e-08
4.416340729e-08
4.493088703e-08
4.571334315e-08
4.651107029e-08
4.732437284e-08
4.815356535e-08
4.8998973e-08
4.986093209e-08
5.073979051e-08
5.163590829e-08
5.254965807e-08
5.348142572e-08
5.443161087e-08
5.540062752e-08
5.638890465e-08
5.739688685e-08
5.8425035e-08
5.947382696e-08
6.054375826e-08
6.163534287e-08
6.274911395e-08
6.388562465e-08
6.504544897e-08
6.622918259e-08
6.743744378e-08
6.867087436e-08
6.993014064e-08
7.121593449e-08
7.252897434e-08
7.387000633e-08
7.523980547e-08
7.663917683e-08
7.806895683e-08
7.953001457e-08
8.102325321e-08
8.254961146e-08
8.41100651e-08
8.570562862e-08
8.733735694e-08
8.900634717e-08
9.071374059e-08
9.246072463e-08
9.4248535e-08
9.6078458e-08
9.795183291e-08
9.98700546e-08
1.018345762e-07
1.038469121e-07
1.059086411e-07
1.080214097e-07
1.101869356e-07
1.124070118e-07
1.146835107e-07
1.170183887e-07
1.194136906e-07
1.21871555e-07
1.243942204e-07
1.269840309e-07
1.296434426e-07
1.323750309e-07
1.351814985e-07
1.380656837e-07
1.410305697e-07
1.440792947e-07
1.472151627e-07
1.504416557e-07
1.537624464e-07
1.571814126e-07
1.607026526e-07
1.643305026e-07
1.680695548e-07
1.719246788e-07
1.759010443e-07
1.800041457e-07
1.842398295e-07
1.886143246e-07
1.931342761e-07
1.978067812e-07
2.02639429e-07
2.076403453e-07
2.12818241e-07
2.181824667e-07
2.237430718e-07
2.295108706e-07
2.354975146e-07
2.417155727e-07
2.481786195e-07
2.549013337e-07
2.618996054e-07
2.691906563e-07
2.767931716e-07
2.847274461e-07
2.930155459e-07
3.016814874e-07
3.107514348e-07
3.202539196e-07
3.302200826e-07
3.406839423e-07
3.516826916e-07
3.632570269e-07
3.754515117e-07
3.883149798e-07
4.019009815e-07
4.162682779e-07
4.314813879e-07
4.476111948e-07
4.64735617e-07
4.829403527e-07
5.023197024e-07
5.229774826e-07
5.450280355e-07
5.685973498e-07
5.938243008e-07
6.208620245e-07
6.498794411e-07
6.81062941e-07
7.146182547e-07
7.50772523e-07
7.897765915e-07
8.319075528e-07
8.774715628e-07
9.268069613e-07
9.802877295e-07
1.038327321e-06
1.101382908e-06
1.169960079e-06
1.244618057e-06
1.325975466e-06
1.414716734e-06
1.511599174e-06
1.61746084e-06
1.733229228e-06
1.859930912e-06
1.998702227e-06
2.150801096e-06
2.317620143e-06
2.500701212e-06
2.701751461e-06
2.922661179e-06
3.165523537e-06
3.432656463e-06
3.726626871e-06
4.050277508e-06
4.406756688e-06
4.799551229e-06
5.23252294e-06
5.709949031e-06
6.236566873e-06
6.817623573e-06
7.458930874e-06
8.166925966e-06
8.948738815e-06
9.812266732e-06
1.076625693e-05
1.182039796e-05
1.298542089e-05
1.427321138e-05
1.569693372e-05
1.727116808e-05
1.901206249e-05
2.093750095e-05
2.306728951e-05
2.542336205e-05
2.803000797e-05
3.091412394e-05
3.410549235e-05
3.763708901e-05
4.15454233e-05
4.587091396e-05
5.065830415e-05
5.595711971e-05
6.182217501e-05
6.831413087e-05
7.550010982e-05
8.345437412e-05
9.225907237e-05
0.0001020050613
0.0001127928091
0.0001247333882
0.0001379495647
0.0001525769922
0.0001687655189
0.0001866806165
0.0002065049396
0.0002284400228
0.0002527081265
0.0002795542361
0.0003092482238
0.0003420871767
0.0003783978946
0.0004185395598
0.0004629065727
0.0005119315495
0.0005660884646
0.0006258959208
0.0006919205146
0.0007647802594
0.000845148012
0.000933754837
0.001031393224
0.001138920056
0.001257259211
0.001387403642
0.001530416789
0.001687433122
0.001859657619
0.002048363975
0.002254891302
0.002480639134
0.002727060521
0.002995653064
0.003287947801
0.003605495897
0.003949853229
0.004322563045
0.004725137014
0.005159035117
0.005625644967
0.00612626123
0.006662065944
0.007234110531
0.00784330031
0.008490382225
0.009175936407
0.009900371974
0.0106639273
0.01146667475
0.01230852959
0.01318926273
0.01410851667
0.01506582383
0.01606062684
0.01709229957
0.01816016884
0.01926353612
0.02040169957
0.02157397724
0.02277973359
0.02401841249
0.02528939357
0.02659288636
0.02792765984
0.02929664012
0.03069949404
0.03213699512
0.03359606088
0.03508584416
0.03660651903
0.03815812809
0.03974028609
0.04135163315
0.04299050882
0.04465544391
0.04634482476
0.04805714291
0.04979061482
0.05156131403
0.05332980342
0.05511065425
0.05689875756
0.0587012338
0.0604829139
0.06224859276
0.06398895405
0.06570238923
0.0673652407
0.06897500757
0.07052197487
0.07199650795
0.07338927275
0.07469149016
0.07589914687
0.07699981742
0.07799648206
0.07888514231
0.07967087784
0.08035922747
0.08095754377
0.08147434305
0.0819210117
0.08230525155
0.08263427283
0.08291610589
0.0831580169
0.08336643625
0.08354696339
0.08370435696
0.08384263469
0.08396505014
0.08407377453
0.08417188805
0.08426166271
0.08434421382
0.08442081285
0.08449253385
0.08456025228
0.08462467701
0.08468635513
0.08474579488
0.08480333837
0.08485927665
0.08491384164
0.08496721682
0.08501954673
0.08507094459
0.08512149845
0.08517127627
0.08522032993
0.08526869855
0.08531641115
0.08536348885
0.0854099466
0.08545579464
0.08550103962
0.08554568553
0.08558973447
0.08563318721
0.0856760437
0.08571830339
0.08575996557
0.08580102956
0.0858414949
0.08588136144
0.08592062948
0.08595929978
0.0859973736
0.08603485278
0.08607173967
0.08610803716
0.08614374866
0.08617887809
0.08621342982
0.08624740869
0.08628081994
0.0863136692
0.08634596243
0.08637770594
0.08640890631
0.08643957035
0.08646970514
0.08649931792
0.08652841613
0.08655700731
0.08658509917
0.08661269946
0.08663981606
0.08666645686
0.08669262982
0.08671834289
0.08674360404
0.08676842123
0.08679280239
0.08681675542
0.08684028816
0.08686340842
0.08688612392
0.08690844232
0.08693037118
0.08695191801
0.0869730902
0.08699389506
0.08701433977
0.08703443144
0.08705417706
0.08707358351
0.08709265755
0.08711140584
0.08712983491
0.08714795119
0.08716576099
0.08718327048
0.08720048575
0.08721741275
0.08723405732
0.08725042517
0.08726652193
0.08728235308
0.087297924
0.08731323996
0.08732830613
0.08734312754
0.08735770915
0.08737205578
0.08738617217
0.08740006294
0.08741373262
0.08742718564
0.08744042633
0.08745345892
0.08746628755
0.08747891626
0.08749134901
0.08750358968
0.08751564204
0.08752750978
0.08753919652
0.08755070579
0.08756204103
0.08757320564
0.08758420289
0.08759503601
0.08760570816
0.0876162224
0.08762658176
0.08763678916
0.08764684749
0.08765675956
0.0876665281
0.08767615581
0.08768564531
0.08769499917
0.08770421989
0.08771330993
0.08772227168
0.08773110749
0.08773981966
0.08774841042
0.08775688197
0.08776523644
0.08777347595
0.08778160253
0.08778961821
0.08779752492
0.08780532461
0.08781301914
0.08782061036
0.08782810006
0.08783549001
0.08784278192
0.08784997748
0.08785707834
0.08786408612
0.08787100239
0.08787782871
0.08788456659
0.08789121752
0.08789778294
0.08790426428
0.08791066293
0.08791698026
0.0879232176
0.08792937628
0.08793545755
0.0879414627
0.08794739294
0.08795324949
0.08795903352
0.08796474621
0.08797038867
0.08797596204
0.08798146739
0.08798690581
0.08799227834
0.08799758601
0.08800282983
0.08800801079
0.08801312987
0.08801818801
0.08802318615
0.08802812521
0.08803300608
0.08803782966
0.0880425968
0.08804730835
0.08805196516
0.08805656804
0.08806111779
0.08806561521
0.08807006106
0.08807445611
0.0880788011
0.08808309678
0.08808734385
0.08809154303
0.08809569502
0.08809980048
0.08810386011
0.08810787454
0.08811184444
0.08811577044
0.08811965316
0.08812349321
0.0881272912
0.08813104773
0.08813476338
0.08813843871
0.0881420743
0.0881456707
0.08814922844
0.08815274808
0.08815623013
0.08815967511
0.08816308354
0.08816645591
0.08816979271
0.08817309443
0.08817636156
0.08817959454
0.08818279386
0.08818595996
0.08818909329
0.08819219428
0.08819526338
0.08819830101
0.08820130758
0.08820428351
0.08820722921
0.08821014507
0.0882130315
0.08821588887
0.08821871757
0.08822151797
0.08822429045
0.08822703536
0.08822975307
0.08823244394
0.0882351083
0.08823774651
0.08824035889
0.08824294579
0.08824550753
0.08824804443
0.08825055681
0.08825304499
0.08825550927
0.08825794996
0.08826036736
0.08826276176
0.08826513346
0.08826748274
0.08826980989
0.08827211519
0.0882743989
0.08827666131
0.08827890268
0.08828112327
0.08828332335
0.08828550317
0.08828766298
0.08828980303
0.08829192357
0.08829402484
0.08829610709
0.08829817054
0.08830021543
0.08830224199
0.08830425044
0.08830624102
0.08830821393
0.08831016941
0.08831210765
0.08831402888
0.08831593331
0.08831782114
0.08831969257
0.0883215478
0.08832338704
0.08832521048
0.08832701831
0.08832881072
0.08833058791
0.08833235006
0.08833409734
0.08833582995
0.08833754807
0.08833925186
0.0883409415
0.08834261717
0.08834427904
0.08834592727
0.08834756203
0.08834918349
0.0883507918
0.08835238713
0.08835396963
0.08835553947
0.08835709679
0.08835864174
0.08836017448
0.08836169516
0.08836320393
0.08836470092
0.08836618628
0.08836766016
0.08836912269
0.08837057401
0.08837201426
0.08837344358
0.08837486209
0.08837626993
0.08837766724
0.08837905413
0.08838043074
0.08838179719
0.08838315362
0.08838450013
0.08838583685
0.08838716391
0.08838848142
0.0883897895
0.08839108827
0.08839237783
0.08839365831
0.08839492983
0.08839619247
0.08839744637
0.08839869163
0.08839992835
0.08840115664
0.08840237661
0.08840358837
0.088404792
0.08840598762
0.08840717533
0.08840835523
0.08840952741
0.08841069197
0.08841184902
0.08841299864
0.08841414092
0.08841527597
0.08841640388
0.08841752473
0.08841863862
0.08841974563
0.08842084587
0.0884219394
0.08842302632
0.08842410672
0.08842518068
0.08842624829
0.08842730962
0.08842836477
0.0884294138
0.08843045681
0.08843149388
0.08843252507
0.08843355047
0.08843457017
0.08843558422
0.08843659272
0.08843759573
0.08843859333
0.0884395856
0.0884405726
0.08844155441
0.08844253111
0.08844350275
0.08844446942
0.08844543117
0.08844638809
0.08844734023
0.08844828767
0.08844923047
0.0884501687
0.08845110242
0.0884520317
0.08845295661
0.0884538772
0.08845479354
0.0884557057
0.08845661372
0.08845751769
0.08845841765
0.08845931366
0.08846020579
0.0884610941
0.08846197864
0.08846285947
0.08846373666
0.08846461024
0.08846548029
0.08846634686
0.08846721001
0.08846806978
0.08846892624
0.08846977943
0.08847062942
0.08847147624
0.08847231997
0.08847316065
0.08847399832
0.08847483305
0.08847566488
0.08847649386
0.08847732005
0.08847814349
0.08847896423
0.08847978233
0.08848059782
0.08848141076
0.08848222119
0.08848302917
0.08848383474
0.08848463794
0.08848543882
0.08848623744
0.08848703382
0.08848782802
0.08848862009
0.08848941006
0.08849019799
0.08849098391
0.08849176787
0.08849254992
0.08849333009
0.08849410842
0.08849488497
0.08849565977
0.08849643287
0.0884972043
0.08849797411
0.08849874234
0.08849950902
0.08850027421
0.08850103794
0.08850180025
0.08850256118
0.08850332076
0.08850407905
0.08850483608
0.08850559188
0.0885063465
0.08850709998
0.08850785235
0.08850860366
0.08850935393
0.08851010321
0.08851085154
0.08851159895
0.08851234549
0.08851309118
0.08851383607
0.08851458019
0.08851532359
0.08851606629
0.08851680833
0.08851754976
0.08851829061
0.0885190309
0.08851977069
0.08852051001
0.08852124889
0.08852198737
0.08852272549
0.08852346327
0.08852420077
0.08852493801
0.08852567503
0.08852641186
0.08852714855
0.08852788512
0.08852862162
0.08852935808
0.08853009453
0.08853083101
0.08853156756
0.08853230421
0.08853304099
0.08853377796
0.08853451513
0.08853525254
0.08853599024
0.08853672825
0.08853746661
0.08853820536
0.08853894453
0.08853968415
0.08854042427
0.08854116492
0.08854190613
0.08854264793
0.08854339037
0.08854413348
0.08854487729
0.08854562183
0.08854636715
0.08854711327
0.08854786024
0.08854860809
0.08854935687
0.08855010661
0.08855085735
0.08855160916
0.08855236207
0.08855311616
0.08855387149
0.08855462813
0.08855538619
0.08855614575
0.08855690691
0.08855766985
0.08856389461
0.08857418093
0.08858449795
0.0885948726
0.08860533483
0.08861591141
0.08862662609
0.08863750053
0.08864855488
0.08865980806
0.088671278
0.0886829817
0.08869493531
0.08870715416
0.08871965271
0.08873244455
0.08874554237
0.08875895791
0.08877270189
0.08878678398
0.08880121277
0.0888159957
0.08883113902
0.08884664781
0.08886252595
0.0888787761
0.08889539979
0.08891239738
0.08892976818
0.08894751049
0.08896562168
0.08898409832
0.08900293625
0.08902213074
0.08904167656
0.08906156811
0.08908179955
0.08910236487
0.08912325797
0.08914447271
0.08916600295
0.08918784254
0.08920998526
0.08923242476
0.0892551544
0.08927816714
0.08930145527
0.08932501021
0.08934882222
0.08937288008
0.08939717077
0.08942167914
0.08944638757
0.08947127564
0.08949631982
0.08952149323
0.08954676538
0.08957210208
0.08959746531
0.08962281325
0.08964810034
0.08967327754
0.08969829257
0.0897230903
0.08974761327
0.08977180227
0.08979559695
0.0898189366
0.08984176092
0.08986401081
0.08988562921
0.08990656193
0.08992675844
0.08994617264
0.08996476355
0.08998249587
0.08999934054
0.09001527512
0.09003028406
0.09004435884
0.09005749802
0.09006970707
0.09008099821
0.09009138999
0.09010090688
0.0901095787
0.09011744002
0.09012452944
0.09013088889
0.09013656291
0.09014159783
0.09014604113
0.09014994065
0.09015334396
0.09015629779
0.0901588474
0.09016103622
0.09016290535
0.09016449336
0.09016583597
0.09016696595
0.09016791303
0.09016870389
0.09016936222
0.09016990884
0.09017036182
0.0901707367
0.09017104667
0.09017130284
0.09017151445
0.09017168912
0.09017183309
0.09017195143
0.09017204823
0.09017212684
0.09017218998
0.09017223991
0.09017227853
0.09017230747
0.0901723282
0.09017234203
0.09017235018
0.09017235377
0.09017235389
0.0901723515
0.09017234754
0.09017234282
0.09017233808
0.09017233395
0.09017233092
0.09017232939
0.09017232965
0.09017233183
0.09017233599
0.09017234209
0.09017234998
0.09017235947
0.09017237029
0.09017238217
0.09017239478
0.09017240784
0.09017242103
0.09017243409
0.09017244678
0.09017245889
0.09017247029
0.09017248085
0.09017249051
0.09017249925
0.09017250707
0.09017251403
0.09017252018
0.0901725256
0.0901725304
0.09017253466
0.09017253849
0.09017254197
0.09017254519
0.09017254822
0.09017255112
0.09017255394
0.09017255671
0.09017255946
0.0901725622
0.09017256494
0.09017256768
0.0901725704
0.09017257311
0.09017257579
0.09017257843
0.09017258101
0.09017258353
0.09017258597
0.09017258833
0.09017259058
0.09017259273
0.09017259475
0.09017259664
0.09017259838
0.09017259997
0.09017260138
0.09017260261
0.09017260365
0.09017260449
0.09017260511
0.09017260551
0.09017260569
0.09017260564
0.09017260536
0.09017260485
0.09017260414
0.09017260322
0.09017260211
0.09017260083
0.09017259939
0.09017259783
0.09017259616
0.09017259441
0.09017259261
0.09017259079
0.09017258896
0.09017258716
0.09017258542
0.09017258375
0.09017258218
0.09017258073
0.09017257941
0.09017257826
0.09017257726
0.09017257645
0.09017257582
0.09017257538
0.09017257513
0.09017257508
0.09017257521
0.09017257554
0.09017257604
0.09017257671
0.09017257754
0.09017257853
0.09017257965
0.09017258089
0.09017258225
0.09017258371
0.09017258525
0.09017258685
0.09017258852
0.09017259022
0.09017259196
0.09017259371
0.09017259547
0.09017259722
0.09017259895
0.09017260065
0.09017260232
0.09017260394
0.09017260552
0.09017260703
0.09017260847
0.09017260985
0.09017261115
0.09017261238
0.09017261352
0.09017261458
0.09017261557
0.09017261647
0.09017261729
0.09017261804
0.09017261869
0.09017261918
)
;

boundaryField
{
    inlet
    {
        type            fixedValue;
        value           uniform 0;
    }
    outlet
    {
        type            zeroGradient;
    }
    wall
    {
        type            empty;
    }
}


// ************************************************************************* //
