/*--------------------------------*- C++ -*----------------------------------*\
  =========                 |
  \\      /  F ield         | OpenFOAM: The Open Source CFD Toolbox
   \\    /   O peration     | Website:  https://openfoam.org
    \\  /    A nd           | Version:  7
     \\/     M anipulation  |
\*---------------------------------------------------------------------------*/
FoamFile
{
    version     2.0;
    format      ascii;
    class       volScalarField;
    location    "0.000558243009";
    object      H2O2;
}
// * * * * * * * * * * * * * * * * * * * * * * * * * * * * * * * * * * * * * //

dimensions      [0 0 0 0 0 0 0];

internalField   nonuniform List<scalar> 
1500
(
1.512709744e-12
5.925276871e-12
1.22469564e-11
1.846689554e-11
2.318075852e-11
2.611394441e-11
2.766930077e-11
2.838868082e-11
2.868372208e-11
2.879243072e-11
2.882880854e-11
2.883996752e-11
2.884313021e-11
2.884396402e-11
2.884416969e-11
2.884421739e-11
2.884422784e-11
2.884423001e-11
2.884423044e-11
2.884423052e-11
2.884423054e-11
2.884423054e-11
2.884423054e-11
2.884423054e-11
2.884423054e-11
2.884423054e-11
2.884423054e-11
2.884423054e-11
2.884423054e-11
2.884423054e-11
2.884423054e-11
2.884423054e-11
2.884423054e-11
2.884423054e-11
2.884423054e-11
2.884423054e-11
2.884423054e-11
2.884423054e-11
2.884423054e-11
2.884423054e-11
2.884423054e-11
2.884423054e-11
2.884423054e-11
2.884423054e-11
2.884423054e-11
2.884423054e-11
2.884423054e-11
2.884423054e-11
2.884423054e-11
2.884423054e-11
2.884423054e-11
2.884423054e-11
2.884423054e-11
2.884423054e-11
2.884423054e-11
2.884423054e-11
2.884423054e-11
2.884423054e-11
2.884423054e-11
2.884423054e-11
2.884423054e-11
2.884423054e-11
2.884423054e-11
2.884423054e-11
2.884423054e-11
2.884423054e-11
2.884423054e-11
2.884423054e-11
2.884423054e-11
2.884423054e-11
2.884423054e-11
2.884423054e-11
2.884423054e-11
2.884423054e-11
2.884423054e-11
2.884423054e-11
2.884423054e-11
2.884423054e-11
2.884423054e-11
2.884423054e-11
2.884423054e-11
2.884423054e-11
2.884423054e-11
2.884423054e-11
2.884423054e-11
2.884423054e-11
2.884423054e-11
2.884423054e-11
2.884423054e-11
2.884423054e-11
2.884423054e-11
2.884423054e-11
2.884423054e-11
2.884423054e-11
2.884423054e-11
2.884423054e-11
2.884423054e-11
2.884423054e-11
2.884423054e-11
2.884423054e-11
2.884423054e-11
2.884423054e-11
2.884423054e-11
2.884423054e-11
2.884423054e-11
2.884423054e-11
2.884423054e-11
2.884423054e-11
2.884423054e-11
2.884423054e-11
2.884423054e-11
2.884423054e-11
2.884423054e-11
2.884423054e-11
2.884423054e-11
2.884423054e-11
2.884423054e-11
2.884423054e-11
2.884423054e-11
2.884423054e-11
2.884423054e-11
2.884423054e-11
2.884423054e-11
2.884423054e-11
2.884423054e-11
2.884423054e-11
2.884423054e-11
2.884423054e-11
2.884423054e-11
2.884423054e-11
2.884423054e-11
2.884423054e-11
2.884423054e-11
2.884423054e-11
2.884423054e-11
2.884423054e-11
2.884423054e-11
2.884423054e-11
2.884423054e-11
2.884423054e-11
2.884423054e-11
2.884423054e-11
2.884423054e-11
2.884423054e-11
2.884423054e-11
2.884423054e-11
2.884423054e-11
2.884423054e-11
2.884423054e-11
2.884423054e-11
2.884423054e-11
2.884423054e-11
2.884423054e-11
2.884423054e-11
2.884423054e-11
2.884423054e-11
2.884423054e-11
2.884423054e-11
2.884423054e-11
2.884423054e-11
2.884423054e-11
2.884423054e-11
2.884423054e-11
2.884423054e-11
2.884423054e-11
2.884423054e-11
2.884423054e-11
2.884423054e-11
2.884423054e-11
2.884423054e-11
2.884423054e-11
2.884423054e-11
2.884423054e-11
2.884423054e-11
2.884423054e-11
2.884423054e-11
2.884423054e-11
2.884423054e-11
2.884423054e-11
2.884423054e-11
2.884423054e-11
2.884423054e-11
2.884423054e-11
2.884423054e-11
2.884423054e-11
2.884423054e-11
2.884423054e-11
2.884423054e-11
2.884423054e-11
2.884423054e-11
2.884423054e-11
2.884423054e-11
2.884423054e-11
2.884423054e-11
2.884423054e-11
2.884423054e-11
2.884423054e-11
2.884423054e-11
2.884423054e-11
2.884423054e-11
2.884423054e-11
2.884423054e-11
2.884423054e-11
2.884423054e-11
2.884423054e-11
2.884423054e-11
2.884423054e-11
2.884423054e-11
2.884423054e-11
2.884423054e-11
2.884423054e-11
2.884423054e-11
2.884423054e-11
2.884423054e-11
2.884423054e-11
2.884423054e-11
2.884423054e-11
2.884423054e-11
2.884423054e-11
2.884423054e-11
2.884423054e-11
2.884423054e-11
2.884423054e-11
2.884423054e-11
2.884423054e-11
2.884423054e-11
2.884423054e-11
2.884423054e-11
2.884423054e-11
2.884423054e-11
2.884423054e-11
2.884423054e-11
2.884423054e-11
2.884423055e-11
2.884423058e-11
2.88442307e-11
2.884423108e-11
2.884423232e-11
2.884423606e-11
2.884424686e-11
2.884427642e-11
2.884435317e-11
2.884454161e-11
2.884497827e-11
2.884592979e-11
2.884786972e-11
2.885154065e-11
2.885790049e-11
2.886772583e-11
2.888044876e-11
2.888639133e-11
2.888784926e-11
2.888936461e-11
2.889094081e-11
2.88925807e-11
2.889428698e-11
2.889606248e-11
2.889791023e-11
2.889983349e-11
2.890183573e-11
2.890392061e-11
2.890609199e-11
2.890835394e-11
2.89107107e-11
2.891316674e-11
2.891572675e-11
2.891839561e-11
2.89211785e-11
2.892408079e-11
2.892710816e-11
2.893026655e-11
2.893356218e-11
2.893700159e-11
2.894059163e-11
2.894433948e-11
2.894825267e-11
2.895233911e-11
2.895660705e-11
2.896106516e-11
2.896572252e-11
2.897058865e-11
2.897567351e-11
2.898098752e-11
2.898654161e-11
2.89923472e-11
2.899841626e-11
2.90047613e-11
2.901139542e-11
2.901833232e-11
2.90255863e-11
2.903317235e-11
2.904110611e-11
2.904940393e-11
2.90580829e-11
2.906716086e-11
2.907665645e-11
2.908658911e-11
2.909697916e-11
2.910784778e-11
2.911921708e-11
2.91311101e-11
2.914355089e-11
2.915656451e-11
2.917017706e-11
2.918441575e-11
2.919930892e-11
2.921488607e-11
2.923117792e-11
2.924821644e-11
2.926603488e-11
2.928466784e-11
2.930415127e-11
2.932452257e-11
2.93458206e-11
2.936808571e-11
2.939135982e-11
2.941568647e-11
2.944111082e-11
2.946767975e-11
2.949544188e-11
2.952444764e-11
2.955474928e-11
2.958640099e-11
2.961945886e-11
2.965398103e-11
2.969002765e-11
2.972766101e-11
2.976694554e-11
2.980794787e-11
2.985073693e-11
2.989538394e-11
2.994196248e-11
2.999054859e-11
3.004122076e-11
3.009406002e-11
3.014914999e-11
3.020657692e-11
3.026642974e-11
3.032880015e-11
3.039378262e-11
3.046147447e-11
3.053197594e-11
3.060539018e-11
3.068182336e-11
3.076138469e-11
3.084418646e-11
3.093034413e-11
3.101997631e-11
3.111320485e-11
3.121015487e-11
3.131095482e-11
3.141573648e-11
3.152463504e-11
3.163778909e-11
3.175534072e-11
3.187743549e-11
3.20042225e-11
3.213585441e-11
3.227248746e-11
3.24142815e-11
3.256140002e-11
3.271401016e-11
3.287228273e-11
3.303639223e-11
3.320651687e-11
3.338283855e-11
3.356554292e-11
3.375481934e-11
3.395086089e-11
3.415386439e-11
3.436403039e-11
3.458156314e-11
3.480667062e-11
3.50395645e-11
3.528046012e-11
3.552957651e-11
3.578713632e-11
3.605336585e-11
3.632849496e-11
3.661275711e-11
3.690638927e-11
3.720963191e-11
3.752272897e-11
3.78459278e-11
3.817947913e-11
3.852363702e-11
3.887865881e-11
3.924480507e-11
3.962233957e-11
4.001152917e-11
4.041264382e-11
4.082595649e-11
4.125174306e-11
4.169028235e-11
4.214185597e-11
4.26067483e-11
4.308524643e-11
4.357764008e-11
4.408422155e-11
4.460528562e-11
4.514112954e-11
4.569205292e-11
4.62583577e-11
4.684034807e-11
4.743833042e-11
4.805261327e-11
4.868350724e-11
4.933132497e-11
4.999638109e-11
5.067899217e-11
5.137947668e-11
5.209815495e-11
5.283534916e-11
5.359138328e-11
5.436658307e-11
5.516127607e-11
5.59757916e-11
5.681046076e-11
5.766561641e-11
5.854159325e-11
5.943872778e-11
6.035735841e-11
6.129782545e-11
6.226047122e-11
6.324564009e-11
6.425367857e-11
6.528493544e-11
6.633976183e-11
6.741851136e-11
6.852154029e-11
6.964920768e-11
7.080187555e-11
7.197990912e-11
7.318367695e-11
7.441355124e-11
7.566990807e-11
7.695312763e-11
7.826359456e-11
7.960169827e-11
8.096783324e-11
8.236239941e-11
8.378580256e-11
8.523845476e-11
8.672077475e-11
8.823318845e-11
8.977612944e-11
9.135003948e-11
9.295536909e-11
9.45925781e-11
9.626213631e-11
9.796452407e-11
9.970023304e-11
1.014697669e-10
1.032736419e-10
1.05112388e-10
1.069865496e-10
1.088966859e-10
1.108433727e-10
1.128272024e-10
1.148487859e-10
1.169087527e-10
1.190077528e-10
1.21146457e-10
1.233255589e-10
1.255457755e-10
1.278078484e-10
1.301125457e-10
1.324606627e-10
1.348530236e-10
1.372904828e-10
1.397739267e-10
1.423042747e-10
1.448824815e-10
1.475095381e-10
1.50186474e-10
1.529143586e-10
1.556943034e-10
1.585274637e-10
1.614150406e-10
1.643582831e-10
1.673584899e-10
1.704170122e-10
1.735352552e-10
1.767146812e-10
1.799568113e-10
1.832632283e-10
1.866355792e-10
1.900755779e-10
1.935850077e-10
1.971657247e-10
2.0081966e-10
2.045488235e-10
2.083553067e-10
2.122412859e-10
2.162090259e-10
2.202608835e-10
2.24399311e-10
2.286268602e-10
2.329461864e-10
2.373600527e-10
2.41871334e-10
2.464830218e-10
2.511982291e-10
2.560201952e-10
2.60952291e-10
2.659980243e-10
2.711610461e-10
2.764451563e-10
2.818543103e-10
2.873926258e-10
2.930643905e-10
2.988740693e-10
3.048263131e-10
3.109259666e-10
3.171780791e-10
3.23587914e-10
3.301609582e-10
3.369029347e-10
3.438198147e-10
3.509178312e-10
3.58203494e-10
3.656836049e-10
3.733652747e-10
3.81255942e-10
3.893633925e-10
3.976957815e-10
4.062616572e-10
4.150699876e-10
4.241301876e-10
4.334521531e-10
4.430462956e-10
4.529235807e-10
4.6309557e-10
4.735744704e-10
4.843731859e-10
4.955053747e-10
5.069855125e-10
5.188289641e-10
5.310520634e-10
5.436722013e-10
5.567079245e-10
5.70179045e-10
5.841067624e-10
5.985138e-10
6.134245573e-10
6.288652806e-10
6.448642529e-10
6.61452007e-10
6.786615637e-10
6.965286988e-10
7.150922417e-10
7.343944099e-10
7.544811847e-10
7.754027314e-10
7.972138709e-10
8.199746088e-10
8.437507288e-10
8.686144587e-10
8.946452177e-10
9.219304554e-10
9.505665938e-10
9.806600849e-10
1.012328599e-09
1.045702356e-09
1.080925631e-09
1.118158426e-09
1.157578375e-09
1.199382856e-09
1.243791387e-09
1.291048306e-09
1.341425787e-09
1.395227225e-09
1.452791048e-09
1.514494997e-09
1.580760933e-09
1.652060246e-09
1.728919932e-09
1.811929426e-09
1.901748276e-09
1.99911478e-09
2.104855687e-09
2.2198971e-09
2.345276742e-09
2.482157734e-09
2.631844089e-09
2.795798131e-09
2.975660064e-09
3.173269991e-09
3.390692642e-09
3.630245188e-09
3.894528503e-09
4.186462299e-09
4.509324626e-09
4.866796274e-09
5.263010679e-09
5.702610021e-09
6.190808279e-09
6.733462109e-09
7.3371505e-09
8.009264318e-09
8.758106934e-09
9.593007334e-09
1.052444724e-08
1.156420395e-08
1.272551094e-08
1.402323824e-08
1.547409524e-08
1.709685851e-08
1.891262787e-08
2.094511403e-08
2.322096188e-08
2.577011366e-08
2.862621699e-08
3.182708326e-08
3.541520256e-08
3.943832213e-08
4.3950096e-08
4.901081466e-08
5.468822444e-08
6.105844767e-08
6.820701566e-08
7.623002845e-08
8.52354566e-08
9.534460214e-08
1.066937379e-07
1.194359468e-07
1.337431845e-07
1.498085932e-07
1.678490947e-07
1.881082972e-07
2.108597519e-07
2.364106e-07
2.651056561e-07
2.973319764e-07
3.335239686e-07
3.741691029e-07
4.198142906e-07
4.710730037e-07
5.286332145e-07
5.932662406e-07
6.658365885e-07
7.473128956e-07
8.387800749e-07
9.414527749e-07
1.05669027e-06
1.1860129e-06
1.331120179e-06
1.493910695e-06
1.676503898e-06
1.881263896e-06
2.110825328e-06
2.368121366e-06
2.656413876e-06
2.979325698e-06
3.340874951e-06
3.745511173e-06
4.198153037e-06
4.7042272e-06
5.269707742e-06
5.901155446e-06
6.605755954e-06
7.391355615e-06
8.26649357e-06
9.240428355e-06
1.0323157e-05
1.152542435e-05
1.285872013e-05
1.433526099e-05
1.596795487e-05
1.777034487e-05
1.975653021e-05
2.19410622e-05
2.433881377e-05
2.69648221e-05
2.983410504e-05
3.296145309e-05
3.636120065e-05
4.004698115e-05
4.403147269e-05
4.832614131e-05
5.294099058e-05
5.788432569e-05
6.316254069e-05
6.877993614e-05
7.473857318e-05
8.103816811e-05
8.767602861e-05
9.464703024e-05
0.0001019436275
0.0001095558913
0.000117471554
0.0001256760469
0.0001341524947
0.0001428816357
0.0001518416202
0.0001610076435
0.0001703513715
0.0001798382505
0.0001894347838
0.0001990839742
0.0002087567245
0.0002183761449
0.0002278542733
0.0002369591285
0.0002456269613
0.0002536893833
0.0002609504049
0.0002671898763
0.0002721720641
0.0002756632032
0.0002774574104
0.0002773919929
0.0002753531052
0.0002712698954
0.0002650607947
0.0002568521909
0.0002466548371
0.0002345983848
0.0002207648511
0.0002056447314
0.0001894562786
0.0001725743987
0.0001552723976
0.000138147124
0.0001214870889
0.0001056291948
9.084065189e-05
7.732299317e-05
6.520585114e-05
5.450515509e-05
4.532005256e-05
3.753717744e-05
3.108052002e-05
2.578357731e-05
2.148621199e-05
1.802830788e-05
1.526285683e-05
1.304007951e-05
1.125781749e-05
9.835306208e-06
8.696266308e-06
7.779336249e-06
7.036114576e-06
6.428735908e-06
5.927429788e-06
5.509044099e-06
5.157115136e-06
4.86177926e-06
4.607129761e-06
4.382834022e-06
4.185269136e-06
4.009286349e-06
3.850862567e-06
3.706868615e-06
3.574869867e-06
3.453067955e-06
3.339775069e-06
3.233907715e-06
3.134520513e-06
3.040850283e-06
2.952274561e-06
2.868280278e-06
2.788439967e-06
2.712393615e-06
2.639834734e-06
2.570499641e-06
2.504159153e-06
2.440612131e-06
2.379680431e-06
2.321204939e-06
2.265042441e-06
2.211063124e-06
2.159148596e-06
2.109190273e-06
2.061088088e-06
2.014749417e-06
1.970088215e-06
1.927024279e-06
1.885482642e-06
1.845393063e-06
1.806689578e-06
1.769310133e-06
1.733196247e-06
1.698292734e-06
1.664547447e-06
1.631911052e-06
1.600336836e-06
1.569780519e-06
1.540200099e-06
1.5115557e-06
1.483809439e-06
1.456925306e-06
1.430869048e-06
1.405608065e-06
1.381111315e-06
1.357349224e-06
1.334293603e-06
1.311917571e-06
1.290195485e-06
1.269102869e-06
1.248616354e-06
1.228713618e-06
1.209373331e-06
1.190575106e-06
1.172299444e-06
1.154527696e-06
1.137242016e-06
1.120425319e-06
1.104061246e-06
1.088134129e-06
1.072628952e-06
1.057531326e-06
1.042827453e-06
1.0285041e-06
1.014548572e-06
1.000948688e-06
9.87692754e-07
9.74769541e-07
9.621682654e-07
9.498785667e-07
9.378904888e-07
9.261944617e-07
9.147812836e-07
9.036421049e-07
8.927684125e-07
8.821520147e-07
8.717850272e-07
8.616598595e-07
8.517692024e-07
8.421060159e-07
8.326635173e-07
8.234351707e-07
8.14414676e-07
8.055959595e-07
7.969731643e-07
7.885406409e-07
7.802929391e-07
7.722247996e-07
7.643311462e-07
7.566070783e-07
7.490478639e-07
7.416489328e-07
7.3440587e-07
7.273144097e-07
7.203704294e-07
7.135699443e-07
7.069091018e-07
7.003841762e-07
6.939915644e-07
6.877277803e-07
6.815894512e-07
6.755733129e-07
6.696762058e-07
6.638950711e-07
6.582269466e-07
6.526689637e-07
6.472183433e-07
6.418723932e-07
6.366285042e-07
6.314841476e-07
6.264368719e-07
6.214843006e-07
6.166241288e-07
6.118541209e-07
6.071721085e-07
6.025759876e-07
5.980637165e-07
5.936333134e-07
5.892828548e-07
5.850104729e-07
5.808143544e-07
5.766927377e-07
5.726439121e-07
5.686662153e-07
5.647580322e-07
5.609177933e-07
5.57143973e-07
5.534350881e-07
5.497896968e-07
5.462063969e-07
5.426838247e-07
5.392206537e-07
5.358155933e-07
5.32467388e-07
5.291748158e-07
5.259366876e-07
5.227518455e-07
5.196191627e-07
5.165375417e-07
5.135059139e-07
5.105232385e-07
5.075885016e-07
5.047007155e-07
5.018589177e-07
4.990621706e-07
4.9630956e-07
4.936001951e-07
4.909332072e-07
4.883077496e-07
4.857229965e-07
4.831781426e-07
4.806724025e-07
4.7820501e-07
4.757752176e-07
4.73382296e-07
4.710255333e-07
4.687042351e-07
4.664177233e-07
4.64165336e-07
4.619464272e-07
4.597603659e-07
4.57606536e-07
4.554843358e-07
4.533931776e-07
4.513324872e-07
4.493017038e-07
4.473002793e-07
4.453276783e-07
4.433833772e-07
4.414668647e-07
4.395776406e-07
4.377152163e-07
4.358791136e-07
4.340688654e-07
4.322840147e-07
4.305241144e-07
4.287887275e-07
4.270774263e-07
4.253897925e-07
4.237254167e-07
4.220838985e-07
4.204648458e-07
4.188678752e-07
4.172926112e-07
4.157386862e-07
4.142057404e-07
4.126934217e-07
4.11201385e-07
4.097292927e-07
4.082768139e-07
4.068436247e-07
4.054294077e-07
4.040338521e-07
4.026566533e-07
4.012975129e-07
3.999561386e-07
3.986322438e-07
3.973255477e-07
3.960357751e-07
3.947626562e-07
3.935059265e-07
3.922653269e-07
3.910406031e-07
3.898315057e-07
3.886377906e-07
3.874592178e-07
3.862955523e-07
3.851465636e-07
3.840120254e-07
3.828917159e-07
3.817854172e-07
3.806929159e-07
3.796140023e-07
3.785484707e-07
3.774961192e-07
3.764567498e-07
3.754301679e-07
3.744161827e-07
3.734146068e-07
3.724252562e-07
3.714479502e-07
3.704825115e-07
3.695287658e-07
3.685865423e-07
3.676556727e-07
3.667359923e-07
3.658273387e-07
3.64929553e-07
3.640424785e-07
3.631659617e-07
3.622998516e-07
3.614439998e-07
3.605982605e-07
3.597624904e-07
3.589365487e-07
3.581202971e-07
3.573135994e-07
3.56516322e-07
3.557283334e-07
3.549495043e-07
3.541797077e-07
3.534188186e-07
3.526667141e-07
3.519232735e-07
3.51188378e-07
3.504619106e-07
3.497437564e-07
3.490338024e-07
3.483319373e-07
3.476380518e-07
3.469520382e-07
3.462737907e-07
3.45603205e-07
3.449401786e-07
3.442846107e-07
3.436364019e-07
3.429954546e-07
3.423616725e-07
3.417349611e-07
3.411152272e-07
3.40502379e-07
3.398963264e-07
3.392969803e-07
3.387042533e-07
3.381180593e-07
3.375383135e-07
3.369649321e-07
3.363978332e-07
3.358369355e-07
3.352821594e-07
3.347334262e-07
3.341906586e-07
3.336537803e-07
3.331227162e-07
3.325973924e-07
3.32077736e-07
3.315636752e-07
3.310551392e-07
3.305520583e-07
3.300543639e-07
3.295619883e-07
3.290748648e-07
3.285929276e-07
3.28116112e-07
3.276443542e-07
3.271775913e-07
3.267157611e-07
3.262588026e-07
3.258066555e-07
3.253592605e-07
3.249165588e-07
3.244784929e-07
3.240450057e-07
3.236160411e-07
3.231915438e-07
3.227714591e-07
3.223557334e-07
3.219443134e-07
3.215371468e-07
3.211341821e-07
3.207353683e-07
3.203406551e-07
3.19949993e-07
3.195633333e-07
3.191806275e-07
3.188018283e-07
3.184268887e-07
3.180557624e-07
3.176884037e-07
3.173247677e-07
3.169648097e-07
3.166084861e-07
3.162557535e-07
3.159065693e-07
3.155608912e-07
3.152186777e-07
3.148798877e-07
3.145444807e-07
3.142124167e-07
3.138836563e-07
3.135581604e-07
3.132358906e-07
3.12916809e-07
3.126008781e-07
3.122880609e-07
3.119783208e-07
3.116716218e-07
3.113679284e-07
3.110672052e-07
3.107694178e-07
3.104745316e-07
3.101825131e-07
3.098933286e-07
3.096069452e-07
3.093233304e-07
3.090424519e-07
3.08764278e-07
3.084887773e-07
3.082159187e-07
3.079456716e-07
3.076780058e-07
3.074128914e-07
3.071502989e-07
3.068901992e-07
3.066325633e-07
3.06377363e-07
3.0612457e-07
3.058741566e-07
3.056260953e-07
3.053803591e-07
3.051369212e-07
3.04895755e-07
3.046568344e-07
3.044201336e-07
3.041856271e-07
3.039532896e-07
3.037230961e-07
3.034950221e-07
3.032690431e-07
3.03045135e-07
3.028232742e-07
3.02603437e-07
3.023856002e-07
3.021697409e-07
3.019558362e-07
3.017438639e-07
3.015338015e-07
3.013256273e-07
3.011193195e-07
3.009148567e-07
3.007122176e-07
3.005113813e-07
3.003123271e-07
3.001150344e-07
2.99919483e-07
2.997256529e-07
2.995335242e-07
2.993430773e-07
2.991542929e-07
2.989671517e-07
2.987816349e-07
2.985977236e-07
2.984153993e-07
2.982346437e-07
2.980554386e-07
2.97877766e-07
2.977016083e-07
2.975269478e-07
2.973537671e-07
2.971820491e-07
2.970117767e-07
2.968429332e-07
2.966755018e-07
2.965094661e-07
2.963448098e-07
2.961815166e-07
2.960195707e-07
2.958589563e-07
2.956996576e-07
2.955416593e-07
2.953849459e-07
2.952295023e-07
2.950753135e-07
2.949223646e-07
2.947706408e-07
2.946201277e-07
2.944708107e-07
2.943226755e-07
2.94175708e-07
2.940298942e-07
2.938852202e-07
2.937416722e-07
2.935992366e-07
2.934578999e-07
2.933176487e-07
2.931784698e-07
2.9304035e-07
2.929032763e-07
2.927672359e-07
2.926322159e-07
2.924982037e-07
2.923651867e-07
2.922331524e-07
2.921020886e-07
2.91971983e-07
2.918428233e-07
2.917145977e-07
2.915872941e-07
2.914609007e-07
2.913354058e-07
2.912107976e-07
2.910870647e-07
2.909641954e-07
2.908421785e-07
2.907210025e-07
2.906006563e-07
2.904811287e-07
2.903624086e-07
2.902444849e-07
2.901273468e-07
2.900109834e-07
2.898953838e-07
2.897805374e-07
2.896664334e-07
2.895530613e-07
2.894404105e-07
2.893284704e-07
2.892172308e-07
2.891066811e-07
2.889968111e-07
2.888876105e-07
2.887790689e-07
2.886711764e-07
2.885639226e-07
2.884572975e-07
2.88351291e-07
2.882458931e-07
2.881410938e-07
2.880368832e-07
2.879332513e-07
2.878301882e-07
2.877276841e-07
2.876257292e-07
2.875243136e-07
2.874234275e-07
2.873230612e-07
2.87223205e-07
2.871238491e-07
2.870249838e-07
2.869265995e-07
2.868286865e-07
2.867312351e-07
2.866342356e-07
2.865376785e-07
2.864415539e-07
2.863458524e-07
2.862505642e-07
2.861556796e-07
2.86061189e-07
2.859670828e-07
2.858733511e-07
2.857799843e-07
2.856869727e-07
2.855943065e-07
2.855019759e-07
2.854099714e-07
2.853182832e-07
2.852269018e-07
2.851358177e-07
2.850450216e-07
2.849545043e-07
2.848642566e-07
2.847742691e-07
2.846845323e-07
2.845950347e-07
2.84505764e-07
2.84416703e-07
2.84327829e-07
2.842391084e-07
2.84150495e-07
2.834297753e-07
2.823214716e-07
2.812686289e-07
2.802689245e-07
2.793156244e-07
2.784028608e-07
2.775255041e-07
2.766789396e-07
2.758589274e-07
2.750614927e-07
2.742828433e-07
2.73519309e-07
2.727672946e-07
2.720232455e-07
2.712836238e-07
2.705448913e-07
2.698035012e-07
2.69055897e-07
2.682985172e-07
2.67527806e-07
2.667402299e-07
2.659322983e-07
2.651005891e-07
2.642417777e-07
2.633526688e-07
2.624302312e-07
2.614716333e-07
2.604742808e-07
2.594358536e-07
2.583543427e-07
2.572280858e-07
2.560558004e-07
2.548366144e-07
2.535700931e-07
2.522562621e-07
2.508956244e-07
2.494891732e-07
2.480383973e-07
2.465452814e-07
2.450122987e-07
2.434423965e-07
2.418389757e-07
2.402058625e-07
2.385472742e-07
2.36867778e-07
2.351722452e-07
2.334657997e-07
2.317537623e-07
2.300415926e-07
2.283348281e-07
2.266390225e-07
2.249596839e-07
2.233022144e-07
2.216718518e-07
2.20073615e-07
2.185122525e-07
2.169921974e-07
2.155175272e-07
2.140919295e-07
2.127186755e-07
2.114005989e-07
2.101400823e-07
2.089390506e-07
2.077989696e-07
2.067208519e-07
2.057052677e-07
2.047523608e-07
2.038618688e-07
2.03033147e-07
2.022651956e-07
2.015566893e-07
2.009060081e-07
2.0031127e-07
1.997703634e-07
1.992809806e-07
1.988406498e-07
1.984467672e-07
1.980966274e-07
1.977874531e-07
1.975164223e-07
1.972806947e-07
1.97077436e-07
1.969038405e-07
1.967571515e-07
1.966346805e-07
1.965338242e-07
1.9645208e-07
1.963870594e-07
1.963365004e-07
1.962982778e-07
1.962704117e-07
1.962510747e-07
1.962385973e-07
1.962314714e-07
1.962283521e-07
1.962280581e-07
1.962295691e-07
1.962320228e-07
1.962347093e-07
1.962370636e-07
1.962386567e-07
1.962391855e-07
1.962384605e-07
1.962363933e-07
1.962329828e-07
1.962283006e-07
1.962224773e-07
1.962156872e-07
1.96208135e-07
1.962000428e-07
1.961916374e-07
1.961831403e-07
1.961747581e-07
1.961666749e-07
1.961590471e-07
1.961519987e-07
1.961456199e-07
1.961399661e-07
1.961350593e-07
1.9613089e-07
1.961274212e-07
1.961245927e-07
1.961223254e-07
1.961205273e-07
1.961190985e-07
1.961179361e-07
1.961169393e-07
1.961160133e-07
1.961150729e-07
1.961140451e-07
1.961128713e-07
1.961115078e-07
1.961099264e-07
1.96108114e-07
1.961060714e-07
1.961038115e-07
1.961013577e-07
1.960987411e-07
1.96095999e-07
1.960931715e-07
1.960903003e-07
1.960874259e-07
1.960845864e-07
1.960818156e-07
1.960791427e-07
1.960765908e-07
1.960741771e-07
1.960719131e-07
1.960698043e-07
1.960678512e-07
1.960660497e-07
1.960643924e-07
1.960628689e-07
1.960614669e-07
1.960601732e-07
1.960589741e-07
1.960578564e-07
1.960568075e-07
1.960558162e-07
1.960548726e-07
1.960539684e-07
1.960530969e-07
1.960522531e-07
1.96051433e-07
1.960506341e-07
1.96049855e-07
1.96049095e-07
1.960483541e-07
1.960476328e-07
1.960469322e-07
1.960462534e-07
1.960455979e-07
1.960449672e-07
1.960443632e-07
1.960437877e-07
1.960432428e-07
1.960427307e-07
1.960422538e-07
1.960418143e-07
1.960414148e-07
1.960410578e-07
1.960407456e-07
1.960404804e-07
1.960402644e-07
1.960400992e-07
1.96039986e-07
1.960399256e-07
1.960399181e-07
1.960399632e-07
1.960400598e-07
1.960402059e-07
1.960403992e-07
1.960406363e-07
1.960409136e-07
1.960412266e-07
1.960415704e-07
1.960419397e-07
1.960423288e-07
1.960427319e-07
1.960431429e-07
1.960435556e-07
1.960439642e-07
1.960443626e-07
1.960447454e-07
1.960451071e-07
1.960454428e-07
1.96045748e-07
1.960460189e-07
1.960462518e-07
1.960464441e-07
1.960465933e-07
1.96046698e-07
1.960467569e-07
1.960467696e-07
1.960467363e-07
1.960466574e-07
1.960465343e-07
1.960463684e-07
1.960461617e-07
1.960459166e-07
1.960456357e-07
1.960453219e-07
1.960449784e-07
1.960446083e-07
1.960442151e-07
1.960438021e-07
1.960433727e-07
1.960429304e-07
1.960424785e-07
1.960420203e-07
1.960415589e-07
1.960410974e-07
1.960406386e-07
1.960401854e-07
1.960397401e-07
1.960393053e-07
1.96038883e-07
1.960384753e-07
1.960380838e-07
1.960377102e-07
1.960373556e-07
1.960370214e-07
1.960367082e-07
1.960364169e-07
1.960361478e-07
1.960359015e-07
1.960356784e-07
1.960354802e-07
1.960353126e-07
1.960351956e-07
)
;

boundaryField
{
    inlet
    {
        type            fixedValue;
        value           uniform 0;
    }
    outlet
    {
        type            zeroGradient;
    }
    wall
    {
        type            empty;
    }
}


// ************************************************************************* //
