/*--------------------------------*- C++ -*----------------------------------*\
  =========                 |
  \\      /  F ield         | OpenFOAM: The Open Source CFD Toolbox
   \\    /   O peration     | Website:  https://openfoam.org
    \\  /    A nd           | Version:  7
     \\/     M anipulation  |
\*---------------------------------------------------------------------------*/
FoamFile
{
    version     2.0;
    format      ascii;
    class       volScalarField;
    location    "0.000558243009";
    object      H2O2_0;
}
// * * * * * * * * * * * * * * * * * * * * * * * * * * * * * * * * * * * * * //

dimensions      [0 0 0 0 0 0 0];

internalField   nonuniform List<scalar> 
1500
(
1.513726333e-12
5.928378463e-12
1.225159565e-11
1.847158991e-11
2.318440261e-11
2.611625908e-11
2.767054902e-11
2.838926611e-11
2.868396491e-11
2.879252111e-11
2.882883907e-11
2.883997697e-11
2.884313291e-11
2.884396473e-11
2.884416986e-11
2.884421742e-11
2.884422784e-11
2.884423001e-11
2.884423043e-11
2.884423051e-11
2.884423053e-11
2.884423053e-11
2.884423053e-11
2.884423053e-11
2.884423053e-11
2.884423053e-11
2.884423053e-11
2.884423053e-11
2.884423053e-11
2.884423053e-11
2.884423053e-11
2.884423053e-11
2.884423053e-11
2.884423053e-11
2.884423053e-11
2.884423053e-11
2.884423053e-11
2.884423053e-11
2.884423053e-11
2.884423053e-11
2.884423053e-11
2.884423053e-11
2.884423053e-11
2.884423053e-11
2.884423053e-11
2.884423053e-11
2.884423053e-11
2.884423053e-11
2.884423053e-11
2.884423053e-11
2.884423053e-11
2.884423053e-11
2.884423053e-11
2.884423053e-11
2.884423053e-11
2.884423053e-11
2.884423053e-11
2.884423053e-11
2.884423053e-11
2.884423053e-11
2.884423053e-11
2.884423053e-11
2.884423053e-11
2.884423053e-11
2.884423053e-11
2.884423053e-11
2.884423053e-11
2.884423053e-11
2.884423053e-11
2.884423053e-11
2.884423053e-11
2.884423053e-11
2.884423053e-11
2.884423053e-11
2.884423053e-11
2.884423053e-11
2.884423053e-11
2.884423053e-11
2.884423053e-11
2.884423053e-11
2.884423053e-11
2.884423053e-11
2.884423053e-11
2.884423053e-11
2.884423053e-11
2.884423053e-11
2.884423053e-11
2.884423053e-11
2.884423053e-11
2.884423053e-11
2.884423053e-11
2.884423053e-11
2.884423053e-11
2.884423053e-11
2.884423053e-11
2.884423053e-11
2.884423053e-11
2.884423053e-11
2.884423053e-11
2.884423053e-11
2.884423053e-11
2.884423053e-11
2.884423053e-11
2.884423053e-11
2.884423053e-11
2.884423053e-11
2.884423053e-11
2.884423053e-11
2.884423053e-11
2.884423053e-11
2.884423053e-11
2.884423053e-11
2.884423053e-11
2.884423053e-11
2.884423053e-11
2.884423053e-11
2.884423053e-11
2.884423053e-11
2.884423053e-11
2.884423053e-11
2.884423053e-11
2.884423053e-11
2.884423053e-11
2.884423053e-11
2.884423053e-11
2.884423053e-11
2.884423053e-11
2.884423053e-11
2.884423053e-11
2.884423053e-11
2.884423053e-11
2.884423053e-11
2.884423053e-11
2.884423053e-11
2.884423053e-11
2.884423053e-11
2.884423053e-11
2.884423053e-11
2.884423053e-11
2.884423053e-11
2.884423053e-11
2.884423053e-11
2.884423053e-11
2.884423053e-11
2.884423053e-11
2.884423053e-11
2.884423053e-11
2.884423053e-11
2.884423053e-11
2.884423053e-11
2.884423053e-11
2.884423053e-11
2.884423053e-11
2.884423053e-11
2.884423053e-11
2.884423053e-11
2.884423053e-11
2.884423053e-11
2.884423053e-11
2.884423053e-11
2.884423053e-11
2.884423053e-11
2.884423053e-11
2.884423053e-11
2.884423053e-11
2.884423053e-11
2.884423053e-11
2.884423053e-11
2.884423053e-11
2.884423053e-11
2.884423053e-11
2.884423053e-11
2.884423053e-11
2.884423053e-11
2.884423053e-11
2.884423053e-11
2.884423053e-11
2.884423053e-11
2.884423053e-11
2.884423053e-11
2.884423053e-11
2.884423053e-11
2.884423053e-11
2.884423053e-11
2.884423053e-11
2.884423053e-11
2.884423053e-11
2.884423053e-11
2.884423053e-11
2.884423053e-11
2.884423053e-11
2.884423053e-11
2.884423053e-11
2.884423053e-11
2.884423053e-11
2.884423053e-11
2.884423053e-11
2.884423053e-11
2.884423053e-11
2.884423053e-11
2.884423053e-11
2.884423053e-11
2.884423053e-11
2.884423053e-11
2.884423053e-11
2.884423053e-11
2.884423053e-11
2.884423053e-11
2.884423053e-11
2.884423053e-11
2.884423053e-11
2.884423053e-11
2.884423053e-11
2.884423053e-11
2.884423053e-11
2.884423053e-11
2.884423053e-11
2.884423053e-11
2.884423053e-11
2.884423053e-11
2.884423053e-11
2.884423053e-11
2.884423053e-11
2.884423053e-11
2.884423053e-11
2.884423053e-11
2.884423053e-11
2.884423053e-11
2.884423053e-11
2.884423053e-11
2.884423053e-11
2.884423053e-11
2.884423053e-11
2.884423054e-11
2.884423057e-11
2.884423069e-11
2.884423107e-11
2.884423231e-11
2.884423605e-11
2.884424686e-11
2.884427645e-11
2.884435326e-11
2.884454189e-11
2.884497903e-11
2.884593166e-11
2.8847874e-11
2.88515497e-11
2.885791816e-11
2.886775724e-11
2.888049845e-11
2.888645072e-11
2.888790994e-11
2.888942725e-11
2.889100584e-11
2.889264831e-11
2.889435727e-11
2.889613553e-11
2.889798614e-11
2.889991235e-11
2.890191766e-11
2.890400574e-11
2.890618047e-11
2.890844592e-11
2.891080635e-11
2.891326623e-11
2.891583024e-11
2.89185033e-11
2.892129058e-11
2.892419747e-11
2.892722964e-11
2.893039306e-11
2.893369396e-11
2.893713888e-11
2.89407347e-11
2.89444886e-11
2.894840813e-11
2.89525012e-11
2.895677609e-11
2.896124148e-11
2.896590647e-11
2.897078059e-11
2.897587382e-11
2.898119661e-11
2.898675989e-11
2.899257511e-11
2.899865427e-11
2.900500989e-11
2.90116551e-11
2.901860361e-11
2.902586977e-11
2.903346858e-11
2.904141571e-11
2.904972754e-11
2.905842119e-11
2.906751453e-11
2.907702623e-11
2.908697577e-11
2.909738351e-11
2.910827065e-11
2.911965935e-11
2.913157269e-11
2.914403476e-11
2.915707065e-11
2.917070653e-11
2.918496964e-11
2.919988837e-11
2.921549228e-11
2.923181213e-11
2.924887994e-11
2.926672902e-11
2.928539403e-11
2.930491099e-11
2.932531735e-11
2.934665203e-11
2.936895546e-11
2.939226963e-11
2.941663812e-11
2.94421062e-11
2.946872081e-11
2.949653065e-11
2.952558622e-11
2.955593988e-11
2.958764587e-11
2.96207604e-11
2.965534168e-11
2.969144997e-11
2.972914764e-11
2.976849923e-11
2.980957148e-11
2.985243341e-11
2.989715634e-11
2.994381399e-11
2.999248249e-11
3.004324046e-11
3.009616904e-11
3.015135197e-11
3.020887563e-11
3.026882909e-11
3.033130417e-11
3.039639548e-11
3.046420048e-11
3.053481953e-11
3.060835595e-11
3.068491605e-11
3.076460918e-11
3.084754781e-11
3.093384751e-11
3.102362709e-11
3.111700855e-11
3.121411717e-11
3.131508157e-11
3.14200337e-11
3.152910892e-11
3.164244602e-11
3.176018723e-11
3.188247833e-11
3.200946858e-11
3.214131083e-11
3.227816152e-11
3.242018068e-11
3.2567532e-11
3.272038281e-11
3.287890413e-11
3.304327065e-11
3.321366078e-11
3.339025664e-11
3.357324407e-11
3.376281263e-11
3.395915563e-11
3.41624701e-11
3.437295678e-11
3.459082015e-11
3.48162684e-11
3.50495134e-11
3.529077073e-11
3.554025961e-11
3.579820293e-11
3.606482718e-11
3.634036246e-11
3.662504243e-11
3.691910428e-11
3.72227887e-11
3.753633984e-11
3.786000527e-11
3.819403593e-11
3.853868608e-11
3.88942133e-11
3.926087835e-11
3.96389452e-11
4.002868094e-11
4.043035571e-11
4.084424268e-11
4.127061796e-11
4.170976053e-11
4.216195222e-11
4.262747761e-11
4.310662396e-11
4.359968121e-11
4.410694181e-11
4.462870076e-11
4.516525546e-11
4.571690573e-11
4.628395368e-11
4.686670365e-11
4.746546222e-11
4.808053807e-11
4.871224199e-11
4.936088677e-11
5.002678722e-11
5.071026004e-11
5.141162387e-11
5.213119919e-11
5.286930831e-11
5.362627536e-11
5.440242625e-11
5.519808865e-11
5.601359202e-11
5.684926759e-11
5.770544837e-11
5.858246918e-11
5.948066668e-11
6.040037939e-11
6.134194776e-11
6.230571425e-11
6.329202335e-11
6.430122173e-11
6.533365828e-11
6.638968429e-11
6.746965352e-11
6.857392238e-11
6.970285006e-11
7.085679877e-11
7.203613385e-11
7.324122407e-11
7.447244178e-11
7.573016323e-11
7.701476884e-11
7.832664342e-11
7.96661766e-11
8.103376309e-11
8.242980306e-11
8.385470255e-11
8.530887389e-11
8.679273609e-11
8.830671539e-11
8.985124568e-11
9.142676907e-11
9.303373643e-11
9.467260799e-11
9.634385393e-11
9.804795508e-11
9.978540352e-11
1.015567034e-10
1.033623716e-10
1.052029387e-10
1.070789493e-10
1.089909637e-10
1.109395581e-10
1.129253258e-10
1.149488783e-10
1.170108459e-10
1.191118795e-10
1.212526509e-10
1.234338545e-10
1.256562082e-10
1.279204551e-10
1.30227364e-10
1.325777315e-10
1.349723831e-10
1.374121745e-10
1.398979935e-10
1.424307611e-10
1.450114333e-10
1.476410028e-10
1.503205009e-10
1.530509987e-10
1.558336097e-10
1.58669491e-10
1.615598459e-10
1.645059255e-10
1.675090309e-10
1.705705155e-10
1.736917872e-10
1.768743106e-10
1.801196099e-10
1.834292705e-10
1.868049425e-10
1.902483428e-10
1.937612581e-10
1.973455477e-10
2.010031465e-10
2.047360678e-10
2.085464071e-10
2.124363447e-10
2.164081495e-10
2.204641827e-10
2.246069011e-10
2.288388611e-10
2.331627231e-10
2.37581255e-10
2.420973371e-10
2.467139665e-10
2.514342619e-10
2.562614683e-10
2.611989629e-10
2.6625026e-10
2.714190171e-10
2.76709041e-10
2.821242942e-10
2.87668902e-10
2.933471595e-10
2.991635399e-10
3.051227026e-10
3.112295002e-10
3.174889915e-10
3.239064497e-10
3.304873708e-10
3.37237488e-10
3.441627829e-10
3.512694994e-10
3.585641584e-10
3.660535737e-10
3.737448684e-10
3.816454939e-10
3.897632494e-10
3.98106304e-10
4.066832206e-10
4.155029827e-10
4.2457502e-10
4.339092454e-10
4.435160875e-10
4.534065303e-10
4.635921541e-10
4.740851855e-10
4.848985505e-10
4.9604593e-10
5.075418229e-10
5.194016188e-10
5.316416779e-10
5.442794192e-10
5.573334192e-10
5.708235215e-10
5.847709596e-10
5.99198493e-10
6.141305601e-10
6.295934485e-10
6.456154862e-10
6.622272541e-10
6.794618251e-10
6.973550313e-10
7.159457629e-10
7.35276304e-10
7.553927079e-10
7.763452184e-10
7.981887422e-10
8.20983379e-10
8.447950151e-10
8.696959912e-10
8.957658505e-10
9.230921791e-10
9.517715494e-10
9.819105792e-10
1.013627122e-09
1.047051601e-09
1.082328515e-09
1.119618115e-09
1.159098311e-09
1.200966786e-09
1.2454434e-09
1.292772868e-09
1.343227784e-09
1.397112011e-09
1.454764501e-09
1.516563571e-09
1.582931731e-09
1.654341092e-09
1.731319455e-09
1.81445715e-09
1.904414727e-09
2.001931601e-09
2.107835766e-09
2.223054716e-09
2.348627726e-09
2.485719652e-09
2.63563644e-09
2.799842571e-09
2.979980664e-09
3.177893509e-09
3.395648838e-09
3.635567175e-09
3.900253131e-09
4.192630589e-09
4.515982254e-09
4.873994103e-09
5.270805358e-09
5.711064652e-09
6.199993153e-09
6.743455527e-09
7.34803969e-09
8.021146447e-09
8.771090237e-09
9.607212364e-09
1.054000825e-08
1.158127046e-08
1.274424939e-08
1.404383394e-08
1.549675443e-08
1.712181067e-08
1.894012829e-08
2.097544666e-08
2.325444244e-08
2.580709309e-08
2.866708525e-08
3.187227353e-08
3.546519589e-08
3.949365247e-08
4.401135581e-08
4.907866105e-08
5.476338592e-08
6.114173145e-08
6.82993158e-08
7.633233464e-08
8.534886378e-08
9.547032099e-08
1.068331063e-07
1.19590442e-07
1.33914437e-07
1.499984007e-07
1.680594381e-07
1.883413574e-07
2.111179276e-07
2.366965272e-07
2.654222283e-07
2.976823665e-07
3.339116515e-07
3.745978792e-07
4.202883112e-07
4.715967951e-07
5.292117041e-07
5.939047822e-07
6.665409868e-07
7.480894295e-07
8.396355181e-07
9.423944133e-07
1.057725914e-06
1.187150889e-06
1.33236938e-06
1.495280483e-06
1.678004128e-06
1.88290485e-06
2.112617638e-06
2.370075909e-06
2.658541627e-06
2.981637537e-06
3.343381406e-06
3.748222104e-06
4.201077219e-06
4.707371812e-06
5.273077735e-06
5.904752753e-06
6.609578539e-06
7.395396319e-06
8.270738727e-06
9.244856145e-06
1.03277355e-05
1.153010929e-05
1.286345224e-05
1.4339963e-05
1.597252814e-05
1.777466559e-05
1.976044524e-05
2.194438459e-05
2.434131805e-05
2.696623939e-05
2.983411819e-05
3.295969204e-05
3.63572382e-05
4.004032943e-05
4.402158055e-05
4.831239311e-05
5.292270637e-05
5.786076327e-05
6.313289966e-05
6.874336406e-05
7.469417394e-05
8.098501245e-05
8.761316677e-05
9.457350658e-05
0.0001018584969
0.0001094582373
0.0001173605089
0.0001255508127
0.0001340123657
0.0001427260191
0.0001516700535
0.0001608198057
0.000170147108
0.0001796164045
0.0001891968544
0.0001988259262
0.0002084884576
0.0002181075749
0.0002276004892
0.0002367004931
0.0002453706923
0.0002534439282
0.0002607246378
0.000266992715
0.0002720123626
0.0002755496808
0.0002773984968
0.000277394604
0.0002754233266
0.0002714047694
0.0002652784424
0.0002571350827
0.0002470007088
0.0002349915293
0.0002212115944
0.0002061012454
0.0001898981949
0.0001729674703
0.000155681475
0.0001384682077
0.0001217204486
0.0001057802174
9.092118298e-05
7.734393148e-05
6.518033311e-05
5.447619752e-05
4.528191743e-05
3.749173758e-05
3.103254353e-05
2.573860847e-05
2.144766298e-05
1.799819592e-05
1.523943763e-05
1.303016425e-05
1.125785754e-05
9.842443874e-06
8.708269199e-06
7.794531694e-06
7.053055033e-06
6.446430738e-06
5.94512694e-06
5.526512073e-06
5.174262053e-06
4.876827713e-06
4.620123829e-06
4.394808126e-06
4.196121831e-06
4.018954289e-06
3.859346911e-06
3.714228058e-06
3.581203235e-06
3.458427847e-06
3.344349016e-06
3.237814474e-06
3.137868866e-06
3.043736445e-06
2.954781479e-06
2.870478072e-06
2.790386995e-06
2.714137815e-06
2.641415049e-06
2.57194739e-06
2.505499287e-06
2.441864354e-06
2.380860165e-06
2.322324152e-06
2.266110333e-06
2.212086706e-06
2.160133154e-06
2.110139754e-06
2.062005404e-06
2.015636694e-06
1.970946986e-06
1.927855641e-06
1.886287376e-06
1.846171723e-06
1.807442571e-06
1.770037764e-06
1.733898766e-06
1.698970362e-06
1.665200398e-06
1.63253955e-06
1.600941121e-06
1.570360854e-06
1.540756774e-06
1.512089033e-06
1.484319776e-06
1.457413017e-06
1.431334526e-06
1.406051726e-06
1.381533592e-06
1.357750566e-06
1.33467447e-06
1.312278435e-06
1.290536822e-06
1.269425162e-06
1.248920087e-06
1.228999277e-06
1.209641401e-06
1.190826068e-06
1.172533776e-06
1.15474587e-06
1.137444497e-06
1.120612566e-06
1.10423371e-06
1.088292251e-06
1.072773167e-06
1.057662056e-06
1.042945112e-06
1.028609093e-06
1.014641293e-06
1.00102952e-06
9.877620705e-07
9.748277062e-07
9.622156329e-07
9.499154802e-07
9.379172823e-07
9.262114592e-07
9.147887998e-07
9.036404454e-07
8.927578736e-07
8.821328837e-07
8.717575829e-07
8.616243722e-07
8.517259344e-07
8.420552211e-07
8.326054422e-07
8.23370054e-07
8.143427493e-07
8.055174474e-07
7.968882842e-07
7.884496038e-07
7.801959495e-07
7.721220558e-07
7.642228404e-07
7.56493397e-07
7.489289879e-07
7.415250374e-07
7.342771255e-07
7.271809812e-07
7.202324771e-07
7.134276237e-07
7.067625636e-07
7.00233567e-07
6.938370262e-07
6.875694513e-07
6.814274652e-07
6.754078002e-07
6.695072927e-07
6.637228804e-07
6.580515977e-07
6.524905725e-07
6.470370225e-07
6.416882524e-07
6.364416498e-07
6.312946833e-07
6.262448985e-07
6.212899159e-07
6.164274282e-07
6.116551973e-07
6.069710521e-07
6.023728863e-07
5.978586558e-07
5.934263767e-07
5.890741232e-07
5.848000256e-07
5.806022683e-07
5.764790879e-07
5.724287717e-07
5.684496557e-07
5.645401229e-07
5.606986021e-07
5.56923566e-07
5.532135299e-07
5.495670504e-07
5.459827237e-07
5.424591847e-07
5.389951054e-07
5.35589194e-07
5.322401935e-07
5.289468807e-07
5.257080651e-07
5.225225879e-07
5.193893209e-07
5.163071655e-07
5.13275052e-07
5.102919386e-07
5.073568103e-07
5.044686783e-07
5.016265795e-07
4.988295749e-07
4.960767497e-07
4.93367212e-07
4.907000924e-07
4.880745433e-07
4.854897382e-07
4.829448709e-07
4.804391552e-07
4.779718243e-07
4.755421299e-07
4.73149342e-07
4.707927481e-07
4.684716531e-07
4.661853782e-07
4.63933261e-07
4.617146548e-07
4.595289281e-07
4.573754642e-07
4.552536608e-07
4.531629297e-07
4.511026962e-07
4.49072399e-07
4.470714896e-07
4.450994318e-07
4.431557019e-07
4.412397879e-07
4.393511894e-07
4.37489417e-07
4.356539925e-07
4.338444482e-07
4.320603265e-07
4.303011803e-07
4.28566572e-07
4.268560735e-07
4.251692663e-07
4.235057405e-07
4.218650954e-07
4.202469387e-07
4.186508865e-07
4.170765629e-07
4.155236003e-07
4.139916384e-07
4.124803248e-07
4.109893141e-07
4.095182685e-07
4.080668567e-07
4.066347547e-07
4.052216447e-07
4.038272157e-07
4.024511628e-07
4.010931874e-07
3.997529969e-07
3.984303045e-07
3.971248291e-07
3.958362954e-07
3.945644332e-07
3.93308978e-07
3.920696702e-07
3.908462555e-07
3.896384843e-07
3.88446112e-07
3.872688988e-07
3.861066092e-07
3.849590127e-07
3.838258826e-07
3.82706997e-07
3.81602138e-07
3.805110916e-07
3.794336483e-07
3.78369602e-07
3.773187508e-07
3.762808963e-07
3.752558439e-07
3.742434026e-07
3.732433847e-07
3.722556061e-07
3.712798861e-07
3.70316047e-07
3.693639145e-07
3.684233174e-07
3.674940876e-07
3.665760598e-07
3.656690719e-07
3.647729645e-07
3.63887581e-07
3.630127675e-07
3.62148373e-07
3.612942488e-07
3.604502492e-07
3.596162305e-07
3.58792052e-07
3.57977575e-07
3.571726633e-07
3.563771831e-07
3.555910027e-07
3.548139928e-07
3.540460261e-07
3.532869776e-07
3.525367242e-07
3.51795145e-07
3.510621211e-07
3.503375353e-07
3.496212727e-07
3.489132201e-07
3.48213266e-07
3.47521301e-07
3.468372173e-07
3.461609088e-07
3.454922712e-07
3.448312019e-07
3.441775998e-07
3.435313655e-07
3.428924011e-07
3.422606104e-07
3.416358986e-07
3.410181724e-07
3.404073398e-07
3.398033106e-07
3.392059956e-07
3.386153073e-07
3.380311593e-07
3.374534666e-07
3.368821457e-07
3.36317114e-07
3.357582905e-07
3.352055951e-07
3.346589493e-07
3.341182754e-07
3.335834971e-07
3.330545392e-07
3.325313274e-07
3.320137889e-07
3.315018516e-07
3.309954448e-07
3.304944984e-07
3.299989437e-07
3.295087129e-07
3.290237392e-07
3.285439566e-07
3.280693003e-07
3.275997063e-07
3.271351115e-07
3.266754537e-07
3.262206716e-07
3.257707049e-07
3.253254939e-07
3.2488498e-07
3.244491053e-07
3.240178126e-07
3.235910457e-07
3.231687491e-07
3.22750868e-07
3.223373485e-07
3.219281373e-07
3.21523182e-07
3.211224307e-07
3.207258324e-07
3.203333368e-07
3.19944894e-07
3.195604551e-07
3.191799717e-07
3.188033962e-07
3.184306814e-07
3.180617809e-07
3.176966489e-07
3.173352402e-07
3.169775101e-07
3.166234147e-07
3.162729104e-07
3.159259545e-07
3.155825046e-07
3.152425189e-07
3.149059562e-07
3.14572776e-07
3.142429379e-07
3.139164024e-07
3.135931303e-07
3.13273083e-07
3.129562224e-07
3.126425109e-07
3.123319113e-07
3.120243868e-07
3.117199013e-07
3.11418419e-07
3.111199045e-07
3.108243231e-07
3.105316402e-07
3.102418218e-07
3.099548344e-07
3.096706448e-07
3.093892201e-07
3.091105282e-07
3.08834537e-07
3.085612149e-07
3.082905308e-07
3.080224538e-07
3.077569537e-07
3.074940002e-07
3.072335637e-07
3.069756149e-07
3.067201248e-07
3.064670647e-07
3.062164065e-07
3.059681221e-07
3.057221839e-07
3.054785647e-07
3.052372375e-07
3.049981756e-07
3.047613528e-07
3.045267429e-07
3.042943204e-07
3.040640597e-07
3.038359358e-07
3.036099239e-07
3.033859994e-07
3.03164138e-07
3.029443159e-07
3.027265093e-07
3.025106947e-07
3.022968492e-07
3.020849497e-07
3.018749736e-07
3.016668986e-07
3.014607026e-07
3.012563637e-07
3.010538603e-07
3.008531711e-07
3.006542748e-07
3.004571506e-07
3.002617779e-07
3.000681362e-07
2.998762053e-07
2.996859653e-07
2.994973963e-07
2.993104789e-07
2.991251937e-07
2.989415216e-07
2.987594437e-07
2.985789413e-07
2.983999959e-07
2.982225892e-07
2.980467032e-07
2.978723198e-07
2.976994215e-07
2.975279906e-07
2.973580099e-07
2.971894622e-07
2.970223306e-07
2.968565981e-07
2.966922483e-07
2.965292647e-07
2.96367631e-07
2.962073311e-07
2.960483491e-07
2.958906692e-07
2.957342759e-07
2.955791536e-07
2.95425287e-07
2.952726611e-07
2.951212609e-07
2.949710714e-07
2.948220781e-07
2.946742664e-07
2.945276218e-07
2.943821302e-07
2.942377774e-07
2.940945495e-07
2.939524325e-07
2.938114128e-07
2.936714767e-07
2.93532611e-07
2.933948021e-07
2.932580369e-07
2.931223023e-07
2.929875853e-07
2.928538732e-07
2.927211531e-07
2.925894124e-07
2.924586387e-07
2.923288195e-07
2.921999426e-07
2.920719957e-07
2.919449668e-07
2.918188438e-07
2.91693615e-07
2.915692684e-07
2.914457925e-07
2.913231756e-07
2.912014062e-07
2.910804728e-07
2.909603642e-07
2.90841069e-07
2.907225762e-07
2.906048746e-07
2.904879532e-07
2.90371801e-07
2.902564073e-07
2.901417611e-07
2.900278518e-07
2.899146688e-07
2.898022014e-07
2.896904391e-07
2.895793714e-07
2.894689879e-07
2.893592784e-07
2.892502324e-07
2.891418397e-07
2.890340902e-07
2.889269737e-07
2.888204801e-07
2.887145993e-07
2.886093214e-07
2.885046364e-07
2.884005344e-07
2.882970054e-07
2.881940397e-07
2.880916274e-07
2.879897587e-07
2.878884239e-07
2.877876132e-07
2.87687317e-07
2.875875256e-07
2.874882294e-07
2.873894187e-07
2.872910839e-07
2.871932156e-07
2.870958041e-07
2.869988399e-07
2.869023135e-07
2.868062153e-07
2.867105358e-07
2.866152656e-07
2.86520395e-07
2.864259144e-07
2.863318142e-07
2.862380847e-07
2.861447161e-07
2.860516983e-07
2.859590212e-07
2.858666742e-07
2.857746467e-07
2.856829274e-07
2.855915045e-07
2.855003656e-07
2.854094975e-07
2.85318886e-07
2.852285157e-07
2.851383696e-07
2.850484289e-07
2.849586725e-07
2.848690763e-07
2.847796112e-07
2.846902439e-07
2.846009318e-07
2.845116183e-07
2.844222291e-07
2.836935076e-07
2.825476735e-07
2.814584187e-07
2.804237663e-07
2.794370342e-07
2.784925751e-07
2.775854152e-07
2.767110739e-07
2.758654193e-07
2.750445581e-07
2.742447539e-07
2.734623663e-07
2.726938053e-07
2.719354977e-07
2.711838643e-07
2.704353047e-07
2.696861907e-07
2.689328668e-07
2.681716568e-07
2.673988769e-07
2.66610854e-07
2.658039491e-07
2.649745845e-07
2.641192753e-07
2.632346636e-07
2.623175551e-07
2.613649571e-07
2.603741182e-07
2.593425668e-07
2.582681501e-07
2.57149071e-07
2.559839232e-07
2.547717222e-07
2.53511934e-07
2.522044981e-07
2.508498458e-07
2.49448912e-07
2.48003142e-07
2.465144906e-07
2.44985414e-07
2.434188554e-07
2.418182229e-07
2.401873603e-07
2.385305115e-07
2.368522784e-07
2.351575732e-07
2.334515654e-07
2.317396251e-07
2.300272635e-07
2.283200702e-07
2.266236507e-07
2.249435636e-07
2.232852589e-07
2.216540192e-07
2.200549042e-07
2.184926991e-07
2.16971869e-07
2.154965181e-07
2.140703563e-07
2.126966721e-07
2.113783113e-07
2.101176646e-07
2.089166604e-07
2.077767642e-07
2.066989849e-07
2.056838858e-07
2.04731601e-07
2.038418565e-07
2.030139939e-07
2.022469986e-07
2.015395293e-07
2.008899496e-07
2.002963606e-07
1.997566345e-07
1.992684472e-07
1.988293116e-07
1.984366094e-07
1.98087622e-07
1.977795599e-07
1.975095907e-07
1.972748651e-07
1.970725414e-07
1.968998081e-07
1.967539045e-07
1.966321395e-07
1.965319088e-07
1.964507102e-07
1.96386157e-07
1.963359902e-07
1.962980885e-07
1.962704767e-07
1.962513332e-07
1.962389943e-07
1.962319584e-07
1.962288872e-07
1.96228606e-07
1.96230101e-07
1.962325162e-07
1.962351475e-07
1.962374354e-07
1.962389558e-07
1.962394098e-07
1.962386117e-07
1.96236476e-07
1.96233004e-07
1.962282691e-07
1.962224029e-07
1.962155803e-07
1.962080063e-07
1.961999024e-07
1.961914949e-07
1.961830042e-07
1.961746357e-07
1.961665723e-07
1.961589689e-07
1.961519482e-07
1.96145599e-07
1.961399754e-07
1.961350982e-07
1.961309572e-07
1.961275144e-07
1.961247089e-07
1.961224613e-07
1.961206794e-07
1.961192631e-07
1.961181095e-07
1.961171181e-07
1.961161943e-07
1.961152533e-07
1.961142225e-07
1.961130436e-07
1.961116736e-07
1.961100845e-07
1.961082638e-07
1.961062125e-07
1.961039438e-07
1.961014814e-07
1.960988567e-07
1.960961069e-07
1.960932724e-07
1.960903949e-07
1.960875148e-07
1.960846702e-07
1.960818949e-07
1.960792179e-07
1.960766624e-07
1.960742454e-07
1.960719782e-07
1.960698663e-07
1.960679101e-07
1.960661055e-07
1.96064445e-07
1.960629182e-07
1.960615127e-07
1.960602153e-07
1.960590125e-07
1.960578908e-07
1.960568379e-07
1.960558426e-07
1.960548949e-07
1.960539867e-07
1.960531113e-07
1.960522636e-07
1.960514398e-07
1.960506375e-07
1.960498552e-07
1.960490924e-07
1.960483489e-07
1.960476255e-07
1.960469231e-07
1.960462429e-07
1.960455863e-07
1.96044955e-07
1.960443508e-07
1.960437755e-07
1.960432311e-07
1.9604272e-07
1.960422442e-07
1.960418063e-07
1.960414086e-07
1.960410535e-07
1.960407435e-07
1.960404807e-07
1.960402671e-07
1.960401043e-07
1.960399936e-07
1.960399356e-07
1.960399305e-07
1.960399777e-07
1.960400762e-07
1.960402241e-07
1.960404187e-07
1.96040657e-07
1.960409349e-07
1.960412482e-07
1.960415919e-07
1.960419606e-07
1.960423487e-07
1.960427502e-07
1.960431591e-07
1.960435692e-07
1.960439747e-07
1.960443696e-07
1.960447482e-07
1.960451054e-07
1.960454362e-07
1.960457361e-07
1.960460013e-07
1.960462283e-07
1.960464144e-07
1.960465574e-07
1.960466555e-07
1.96046708e-07
1.960467143e-07
1.960466745e-07
1.960465895e-07
1.960464604e-07
1.960462888e-07
1.960460767e-07
1.960458266e-07
1.960455412e-07
1.960452234e-07
1.960448763e-07
1.960445033e-07
1.960441076e-07
1.960436928e-07
1.960432623e-07
1.960428194e-07
1.960423675e-07
1.960419099e-07
1.960414498e-07
1.960409902e-07
1.960405339e-07
1.960400836e-07
1.96039642e-07
1.960392112e-07
1.960387935e-07
1.960383908e-07
1.960380048e-07
1.960376369e-07
1.960372886e-07
1.960369608e-07
1.960366545e-07
1.960363702e-07
1.960361083e-07
1.960358694e-07
1.960356537e-07
1.960354629e-07
1.960353028e-07
1.960351929e-07
)
;

boundaryField
{
    inlet
    {
        type            fixedValue;
        value           uniform 0;
    }
    outlet
    {
        type            zeroGradient;
    }
    wall
    {
        type            empty;
    }
}


// ************************************************************************* //
