/*--------------------------------*- C++ -*----------------------------------*\
  =========                 |
  \\      /  F ield         | OpenFOAM: The Open Source CFD Toolbox
   \\    /   O peration     | Website:  https://openfoam.org
    \\  /    A nd           | Version:  7
     \\/     M anipulation  |
\*---------------------------------------------------------------------------*/
FoamFile
{
    version     2.0;
    format      ascii;
    class       volScalarField;
    location    "0.000558243009";
    object      H2O_0;
}
// * * * * * * * * * * * * * * * * * * * * * * * * * * * * * * * * * * * * * //

dimensions      [0 0 0 0 0 0 0];

internalField   nonuniform List<scalar> 
1500
(
5.831684625e-10
2.285807162e-09
4.729190187e-09
7.148636703e-09
8.997832712e-09
1.015944346e-08
1.078162019e-08
1.107240636e-08
1.119295423e-08
1.123786046e-08
1.125305646e-08
1.125777097e-08
1.125912255e-08
1.125948303e-08
1.125957298e-08
1.125959409e-08
1.125959877e-08
1.125959976e-08
1.125959995e-08
1.125959999e-08
1.12596e-08
1.12596e-08
1.12596e-08
1.12596e-08
1.12596e-08
1.12596e-08
1.12596e-08
1.12596e-08
1.12596e-08
1.12596e-08
1.12596e-08
1.12596e-08
1.12596e-08
1.12596e-08
1.12596e-08
1.12596e-08
1.12596e-08
1.12596e-08
1.12596e-08
1.12596e-08
1.12596e-08
1.12596e-08
1.12596e-08
1.12596e-08
1.12596e-08
1.12596e-08
1.12596e-08
1.12596e-08
1.12596e-08
1.12596e-08
1.12596e-08
1.12596e-08
1.12596e-08
1.12596e-08
1.12596e-08
1.12596e-08
1.12596e-08
1.12596e-08
1.12596e-08
1.12596e-08
1.12596e-08
1.12596e-08
1.12596e-08
1.12596e-08
1.12596e-08
1.12596e-08
1.12596e-08
1.12596e-08
1.12596e-08
1.12596e-08
1.12596e-08
1.12596e-08
1.12596e-08
1.12596e-08
1.12596e-08
1.12596e-08
1.12596e-08
1.12596e-08
1.12596e-08
1.12596e-08
1.12596e-08
1.12596e-08
1.12596e-08
1.12596e-08
1.12596e-08
1.12596e-08
1.12596e-08
1.12596e-08
1.12596e-08
1.12596e-08
1.12596e-08
1.12596e-08
1.12596e-08
1.12596e-08
1.12596e-08
1.12596e-08
1.12596e-08
1.12596e-08
1.12596e-08
1.12596e-08
1.12596e-08
1.12596e-08
1.12596e-08
1.12596e-08
1.12596e-08
1.12596e-08
1.12596e-08
1.12596e-08
1.12596e-08
1.12596e-08
1.12596e-08
1.12596e-08
1.12596e-08
1.12596e-08
1.12596e-08
1.12596e-08
1.12596e-08
1.12596e-08
1.12596e-08
1.12596e-08
1.12596e-08
1.12596e-08
1.12596e-08
1.12596e-08
1.12596e-08
1.12596e-08
1.12596e-08
1.12596e-08
1.12596e-08
1.12596e-08
1.12596e-08
1.12596e-08
1.12596e-08
1.12596e-08
1.12596e-08
1.12596e-08
1.12596e-08
1.12596e-08
1.12596e-08
1.12596e-08
1.12596e-08
1.12596e-08
1.12596e-08
1.12596e-08
1.12596e-08
1.12596e-08
1.12596e-08
1.12596e-08
1.12596e-08
1.12596e-08
1.12596e-08
1.12596e-08
1.12596e-08
1.12596e-08
1.12596e-08
1.12596e-08
1.12596e-08
1.12596e-08
1.12596e-08
1.12596e-08
1.12596e-08
1.12596e-08
1.12596e-08
1.12596e-08
1.12596e-08
1.12596e-08
1.12596e-08
1.12596e-08
1.12596e-08
1.12596e-08
1.12596e-08
1.12596e-08
1.12596e-08
1.12596e-08
1.12596e-08
1.12596e-08
1.12596e-08
1.12596e-08
1.12596e-08
1.12596e-08
1.12596e-08
1.12596e-08
1.12596e-08
1.12596e-08
1.12596e-08
1.12596e-08
1.12596e-08
1.12596e-08
1.12596e-08
1.12596e-08
1.12596e-08
1.12596e-08
1.12596e-08
1.12596e-08
1.12596e-08
1.12596e-08
1.12596e-08
1.12596e-08
1.12596e-08
1.12596e-08
1.12596e-08
1.12596e-08
1.12596e-08
1.12596e-08
1.12596e-08
1.12596e-08
1.12596e-08
1.12596e-08
1.12596e-08
1.12596e-08
1.12596e-08
1.12596e-08
1.12596e-08
1.12596e-08
1.12596e-08
1.12596e-08
1.12596e-08
1.12596e-08
1.12596e-08
1.12596e-08
1.12596e-08
1.12596e-08
1.12596e-08
1.12596e-08
1.12596e-08
1.12596e-08
1.12596e-08
1.12596e-08
1.12596e-08
1.12596e-08
1.12596e-08
1.12596e-08
1.125960001e-08
1.125960002e-08
1.125960007e-08
1.125960022e-08
1.12596007e-08
1.125960208e-08
1.125960595e-08
1.125961624e-08
1.125964233e-08
1.125970523e-08
1.12598493e-08
1.126016208e-08
1.126080365e-08
1.126204159e-08
1.126427287e-08
1.126798568e-08
1.127356507e-08
1.128077648e-08
1.128447015e-08
1.128532585e-08
1.128621568e-08
1.128714152e-08
1.128810491e-08
1.128910737e-08
1.129015052e-08
1.12912361e-08
1.129236597e-08
1.129354209e-08
1.129476655e-08
1.129604153e-08
1.129736932e-08
1.129875229e-08
1.130019296e-08
1.130169392e-08
1.130325789e-08
1.130488772e-08
1.130658639e-08
1.130835698e-08
1.131020275e-08
1.131212708e-08
1.13141335e-08
1.131622571e-08
1.131840754e-08
1.132068304e-08
1.132305638e-08
1.132553194e-08
1.132811429e-08
1.133080818e-08
1.133361858e-08
1.133655066e-08
1.133960981e-08
1.134280164e-08
1.1346132e-08
1.134960698e-08
1.135323293e-08
1.135701646e-08
1.136096443e-08
1.136508399e-08
1.136938259e-08
1.137386796e-08
1.137854815e-08
1.138343151e-08
1.138852675e-08
1.13938429e-08
1.139938933e-08
1.140517578e-08
1.141121238e-08
1.141750962e-08
1.14240784e-08
1.143093002e-08
1.14380762e-08
1.14455291e-08
1.145330133e-08
1.146140593e-08
1.146985645e-08
1.14786669e-08
1.148785179e-08
1.149742614e-08
1.15074055e-08
1.151780597e-08
1.152864418e-08
1.153993733e-08
1.155170322e-08
1.156396024e-08
1.157672737e-08
1.159002424e-08
1.16038711e-08
1.161828888e-08
1.163329915e-08
1.164892418e-08
1.166518694e-08
1.168211111e-08
1.16997211e-08
1.171804207e-08
1.173709994e-08
1.175692138e-08
1.177753388e-08
1.179896572e-08
1.1821246e-08
1.184440467e-08
1.186847249e-08
1.189348112e-08
1.191946309e-08
1.19464518e-08
1.197448157e-08
1.200358765e-08
1.203380619e-08
1.206517433e-08
1.209773013e-08
1.213151264e-08
1.216656189e-08
1.220291889e-08
1.22406257e-08
1.227972535e-08
1.232026193e-08
1.236228055e-08
1.24058274e-08
1.24509497e-08
1.249769575e-08
1.254611495e-08
1.259625774e-08
1.264817571e-08
1.27019215e-08
1.27575489e-08
1.28151128e-08
1.28746692e-08
1.293627524e-08
1.299998919e-08
1.306587045e-08
1.313397955e-08
1.32043782e-08
1.32771292e-08
1.335229652e-08
1.342994529e-08
1.351014177e-08
1.359295336e-08
1.367844863e-08
1.376669726e-08
1.385777011e-08
1.395173915e-08
1.40486775e-08
1.414865942e-08
1.425176029e-08
1.435805661e-08
1.446762601e-08
1.458054723e-08
1.469690012e-08
1.481676563e-08
1.49402258e-08
1.506736376e-08
1.519826373e-08
1.533301099e-08
1.54716919e-08
1.561439385e-08
1.576120531e-08
1.591221578e-08
1.606751577e-08
1.622719686e-08
1.639135159e-08
1.656007357e-08
1.673345736e-08
1.691159854e-08
1.709459367e-08
1.72825403e-08
1.747553694e-08
1.767368309e-08
1.787707921e-08
1.808582671e-08
1.830002798e-08
1.851978636e-08
1.874520617e-08
1.897639266e-08
1.921345208e-08
1.945649163e-08
1.970561949e-08
1.996094483e-08
2.02225778e-08
2.049062958e-08
2.076521236e-08
2.104643937e-08
2.133442489e-08
2.16292843e-08
2.193113406e-08
2.224009179e-08
2.255627625e-08
2.287980743e-08
2.321080653e-08
2.354939604e-08
2.389569977e-08
2.424984293e-08
2.461195213e-08
2.498215548e-08
2.536058265e-08
2.574736492e-08
2.614263528e-08
2.654652846e-08
2.695918108e-08
2.73807317e-08
2.78113209e-08
2.825109144e-08
2.87001883e-08
2.915875884e-08
2.962695293e-08
3.010492301e-08
3.059282432e-08
3.109081497e-08
3.159905614e-08
3.211771219e-08
3.264695089e-08
3.318694352e-08
3.373786514e-08
3.429989472e-08
3.487321536e-08
3.545801452e-08
3.605448423e-08
3.66628213e-08
3.728322763e-08
3.791591039e-08
3.856108233e-08
3.921896205e-08
3.988977426e-08
4.057375013e-08
4.127112757e-08
4.198215157e-08
4.270707452e-08
4.344615659e-08
4.419966607e-08
4.496787979e-08
4.575108345e-08
4.654957212e-08
4.736365059e-08
4.819363384e-08
4.903984752e-08
4.99026284e-08
5.078232487e-08
5.167929747e-08
5.259391942e-08
5.352657714e-08
5.447767086e-08
5.544761521e-08
5.643683982e-08
5.744578996e-08
5.847492724e-08
5.952473026e-08
6.059569532e-08
6.16883372e-08
6.280318992e-08
6.39408075e-08
6.510176487e-08
6.628665866e-08
6.749610814e-08
6.873075618e-08
6.999127017e-08
7.12783431e-08
7.259269459e-08
7.393507199e-08
7.530625159e-08
7.670703979e-08
7.813827437e-08
7.960082587e-08
8.109559895e-08
8.262353386e-08
8.418560798e-08
8.578283749e-08
8.741627903e-08
8.908703154e-08
9.079623817e-08
9.25450883e-08
9.433481967e-08
9.616672069e-08
9.804213284e-08
9.996245326e-08
1.019291375e-07
1.039437023e-07
1.060077292e-07
1.081228671e-07
1.102908367e-07
1.125134339e-07
1.147925339e-07
1.171300963e-07
1.195281695e-07
1.21988895e-07
1.245145149e-07
1.271073775e-07
1.297699424e-07
1.325047891e-07
1.353146244e-07
1.382022912e-07
1.411707771e-07
1.442232252e-07
1.473629448e-07
1.505934231e-07
1.539183384e-07
1.573415745e-07
1.608672358e-07
1.644996656e-07
1.682434621e-07
1.721035024e-07
1.76084964e-07
1.801933495e-07
1.844345139e-07
1.888146949e-07
1.933405478e-07
1.980191802e-07
2.028581925e-07
2.078657218e-07
2.13050492e-07
2.184218669e-07
2.239899106e-07
2.297654529e-07
2.35760162e-07
2.419866247e-07
2.484584352e-07
2.551902929e-07
2.621981107e-07
2.694991347e-07
2.771120765e-07
2.850572598e-07
2.933567817e-07
3.020346926e-07
3.111171936e-07
3.206328564e-07
3.306128656e-07
3.410912873e-07
3.521053666e-07
3.636958569e-07
3.75907384e-07
3.887888499e-07
4.023938796e-07
4.167813159e-07
4.320157675e-07
4.481682158e-07
4.653166875e-07
4.835469988e-07
5.029535807e-07
5.236403924e-07
5.457219332e-07
5.693243646e-07
5.945867514e-07
6.216624386e-07
6.507205758e-07
6.819478063e-07
7.155501381e-07
7.51755018e-07
7.908136281e-07
8.330034311e-07
8.786309904e-07
9.280350942e-07
9.815902174e-07
1.039710357e-06
1.10285328e-06
1.171525236e-06
1.246286169e-06
1.327755501e-06
1.416618531e-06
1.513633537e-06
1.619639631e-06
1.735565472e-06
1.862438913e-06
2.001397693e-06
2.153701279e-06
2.320743991e-06
2.504069535e-06
2.705387112e-06
2.926589256e-06
3.1697716e-06
3.43725477e-06
3.731608643e-06
4.05567921e-06
4.412618341e-06
4.80591675e-06
5.239440512e-06
5.717471503e-06
6.244752203e-06
6.826535301e-06
7.468638647e-06
8.177506097e-06
8.960274902e-06
9.824850317e-06
1.077998823e-05
1.183538663e-05
1.300178689e-05
1.429108588e-05
1.571646008e-05
1.729250292e-05
1.903537684e-05
2.096298148e-05
2.309513985e-05
2.545380419e-05
2.806328381e-05
3.09504969e-05
3.414524909e-05
3.768054126e-05
4.159290982e-05
4.592280257e-05
5.071499391e-05
5.601904319e-05
6.188980061e-05
6.838796532e-05
7.558070069e-05
8.354231236e-05
9.235499499e-05
0.0001021096539
0.0001129068085
0.0001248575849
0.0001380848051
0.0001527241808
0.00016892562
0.0001868546555
0.0002066940034
0.0002286452602
0.0002529307465
0.0002797955058
0.0003095094644
0.0003423697574
0.0003787032243
0.0004188690755
0.0004632617249
0.0005123137824
0.0005664991919
0.0006263364942
0.0006923921859
0.0007652841328
0.0008456849864
0.0009343255353
0.001031997909
0.001139558529
0.001257930691
0.001388106623
0.001531148873
0.001688190823
0.001860436142
0.002049156951
0.002255690501
0.002481434131
0.00272783833
0.002996397738
0.003288639995
0.00360611241
0.003950366521
0.004322940751
0.004725341464
0.005159022883
0.005625366449
0.006125660316
0.006661079758
0.007232669292
0.007841327321
0.00848779401
0.009172643005
0.009896277385
0.01065893009
0.01146066877
0.01230140487
0.0131809064
0.01409881399
0.01505465929
0.01604788524
0.01707786704
0.01814393362
0.01924538871
0.02038153152
0.02155167787
0.02275518457
0.02399148369
0.02525982111
0.02656066002
0.02789217504
0.02925874972
0.03065998431
0.03209711079
0.03355295123
0.03503956642
0.03655718535
0.03810585183
0.03968516314
0.04129375027
0.04292995815
0.04459237302
0.04627952436
0.04799036925
0.049722368
0.05149233063
0.05326028024
0.05504078736
0.0568289437
0.05863177137
0.06041473963
0.06218229909
0.06392532384
0.06563694826
0.06730323481
0.06891633289
0.07046661469
0.07194452025
0.07334073467
0.07464657499
0.075856273
0.07696077557
0.07796108427
0.07885320417
0.07964233457
0.08033401602
0.08093560876
0.08145565458
0.0819041163
0.08229003
0.08262069579
0.08290405316
0.08314731409
0.08335688883
0.08353840479
0.08369665567
0.08383568329
0.0839587913
0.08406827461
0.08416706924
0.08425732964
0.08434025204
0.0844171812
0.08448920959
0.08455721792
0.08462191401
0.08468385959
0.08474351961
0.08480125284
0.08485735234
0.08491205242
0.08496553955
0.08501796144
0.08506943446
0.08512004962
0.08516987749
0.08521897224
0.08526737491
0.08531511612
0.08536221829
0.08540869744
0.0854545646
0.08549982708
0.08554448937
0.08558855395
0.08563202188
0.08567489329
0.08571716781
0.08575884482
0.08579992371
0.08584040406
0.08588028576
0.08591956909
0.08595825481
0.0859963442
0.08603383904
0.08607074168
0.08610705499
0.08614278234
0.08617792763
0.08621249521
0.0862464899
0.0862799169
0.08631278183
0.08634509064
0.0863768496
0.08640806528
0.08643874449
0.08646889427
0.08649852188
0.08652763472
0.08655624034
0.08658434642
0.08661196074
0.08663909114
0.08666574553
0.08669193184
0.08671765805
0.0867429321
0.08676776197
0.08679215558
0.08681612082
0.08683966556
0.08686279758
0.08688552461
0.08690785433
0.08692979429
0.086951352
0.08697253485
0.08699335016
0.08701380512
0.08703390683
0.0870536623
0.08707307839
0.08709216188
0.08711091943
0.08712935758
0.08714748275
0.08716530126
0.08718281929
0.08720004293
0.08721697814
0.08723363074
0.08725000648
0.08726611096
0.08728194968
0.08729752803
0.08731285127
0.08732792457
0.08734275298
0.08735734144
0.0873716948
0.08738581779
0.08739971503
0.08741339106
0.08742685031
0.0874400971
0.08745313568
0.08746597019
0.08747860467
0.08749104309
0.08750328931
0.08751534712
0.08752722021
0.0875389122
0.08755042663
0.08756176694
0.08757293651
0.08758393864
0.08759477656
0.08760545341
0.08761597228
0.08762633617
0.08763654804
0.08764661074
0.08765652711
0.08766629988
0.08767593174
0.08768542532
0.08769478319
0.08770400785
0.08771310176
0.08772206732
0.08773090687
0.08773962272
0.08774821709
0.08775669219
0.08776505017
0.08777329311
0.08778142307
0.08778944206
0.08779735205
0.08780515495
0.08781285264
0.08782044697
0.08782793973
0.08783533269
0.08784262756
0.08784982603
0.08785692976
0.08786394036
0.08787085942
0.08787768847
0.08788442904
0.08789108262
0.08789765064
0.08790413455
0.08791053574
0.08791685556
0.08792309536
0.08792925645
0.08793534012
0.08794134761
0.08794728017
0.087953139
0.08795892528
0.08796464018
0.08797028483
0.08797586035
0.08798136783
0.08798680835
0.08799218294
0.08799749265
0.08800273849
0.08800792144
0.08801304247
0.08801810255
0.0880231026
0.08802804355
0.08803292629
0.0880377517
0.08804252066
0.08804723401
0.0880518926
0.08805649723
0.08806104872
0.08806554784
0.08806999539
0.08807439212
0.08807873877
0.08808303609
0.08808728478
0.08809148557
0.08809563914
0.08809974618
0.08810380736
0.08810782334
0.08811179476
0.08811572227
0.08811960649
0.08812344803
0.08812724749
0.08813100548
0.08813472256
0.08813839933
0.08814203634
0.08814563414
0.08814919328
0.0881527143
0.08815619773
0.08815964407
0.08816305385
0.08816642756
0.08816976569
0.08817306874
0.08817633717
0.08817957147
0.08818277207
0.08818593946
0.08818907406
0.08819217633
0.08819524668
0.08819828556
0.08820129338
0.08820427055
0.08820721747
0.08821013456
0.0882130222
0.08821588077
0.08821871067
0.08822151227
0.08822428593
0.08822703203
0.08822975091
0.08823244295
0.08823510847
0.08823774783
0.08824036137
0.08824294941
0.08824551228
0.08824805032
0.08825056383
0.08825305313
0.08825551853
0.08825796033
0.08826037884
0.08826277435
0.08826514714
0.08826749752
0.08826982576
0.08827213214
0.08827441693
0.08827668042
0.08827892286
0.08828114452
0.08828334566
0.08828552653
0.0882876874
0.0882898285
0.08829195009
0.08829405241
0.08829613569
0.08829820018
0.0883002461
0.08830227369
0.08830428317
0.08830627477
0.0883082487
0.08831020519
0.08831214445
0.08831406669
0.08831597213
0.08831786095
0.08831973338
0.08832158961
0.08832342985
0.08832525428
0.08832706309
0.08832885649
0.08833063466
0.08833239779
0.08833414605
0.08833587963
0.08833759872
0.08833930348
0.08834099409
0.08834267072
0.08834433355
0.08834598274
0.08834761845
0.08834924086
0.08835085013
0.0883524464
0.08835402985
0.08835560063
0.08835715889
0.08835870478
0.08836023846
0.08836176008
0.08836326977
0.08836476769
0.08836625398
0.08836772878
0.08836919224
0.08837064448
0.08837208565
0.08837351589
0.08837493532
0.08837634407
0.08837774229
0.08837913009
0.08838050761
0.08838187497
0.0883832323
0.08838457971
0.08838591733
0.08838724529
0.0883885637
0.08838987267
0.08839117233
0.08839246279
0.08839374417
0.08839501657
0.0883962801
0.08839753489
0.08839878103
0.08840001863
0.08840124781
0.08840246866
0.08840368129
0.0884048858
0.0884060823
0.08840727088
0.08840845165
0.0884096247
0.08841079014
0.08841194805
0.08841309853
0.08841424169
0.0884153776
0.08841650637
0.08841762809
0.08841874284
0.08841985071
0.0884209518
0.08842204619
0.08842313397
0.08842421523
0.08842529004
0.0884263585
0.08842742069
0.08842847668
0.08842952657
0.08843057043
0.08843160834
0.08843264038
0.08843366663
0.08843468717
0.08843570207
0.08843671141
0.08843771526
0.0884387137
0.08843970681
0.08844069465
0.0884416773
0.08844265483
0.08844362731
0.08844459481
0.0884455574
0.08844651515
0.08844746813
0.0884484164
0.08844936003
0.08845029909
0.08845123365
0.08845216376
0.08845308949
0.08845401091
0.08845492808
0.08845584106
0.08845674991
0.0884576547
0.08845855548
0.08845945232
0.08846034528
0.08846123441
0.08846211977
0.08846300142
0.08846387942
0.08846475383
0.0884656247
0.08846649209
0.08846735605
0.08846821664
0.08846907391
0.08846992792
0.08847077872
0.08847162636
0.0884724709
0.08847331239
0.08847415088
0.08847498642
0.08847581906
0.08847664885
0.08847747585
0.0884783001
0.08847912165
0.08847994055
0.08848075686
0.0884815706
0.08848238184
0.08848319063
0.088483997
0.08848480101
0.0884856027
0.08848640211
0.0884871993
0.08848799431
0.08848878718
0.08848957795
0.08849036668
0.08849115341
0.08849193817
0.08849272101
0.08849350198
0.08849428112
0.08849505847
0.08849583407
0.08849660796
0.08849738019
0.0884981508
0.08849891982
0.08849968731
0.08850045329
0.08850121781
0.08850198092
0.08850274264
0.08850350303
0.08850426211
0.08850501993
0.08850577653
0.08850653195
0.08850728622
0.08850803938
0.08850879148
0.08850954255
0.08851029262
0.08851104174
0.08851178995
0.08851253728
0.08851328376
0.08851402944
0.08851477436
0.08851551855
0.08851626204
0.08851700488
0.0885177471
0.08851848873
0.08851922982
0.08851997041
0.08852071051
0.08852145019
0.08852218946
0.08852292837
0.08852366695
0.08852440523
0.08852514326
0.08852588108
0.0885266187
0.08852735618
0.08852809355
0.08852883084
0.08852956809
0.08853030534
0.08853104261
0.08853177995
0.0885325174
0.08853325498
0.08853399274
0.08853473071
0.08853546892
0.08853620741
0.08853694622
0.08853768538
0.08853842493
0.0885391649
0.08853990533
0.08854064625
0.0885413877
0.08854212972
0.08854287233
0.08854361558
0.08854435949
0.0885451041
0.08854584944
0.08854659554
0.08854734245
0.08854809017
0.08854883876
0.08854958823
0.08855033861
0.08855108994
0.08855184223
0.08855259553
0.08855334986
0.08855410527
0.08855486179
0.0885556195
0.08855637847
0.0885571388
0.0885579007
0.08856411587
0.0885744212
0.08858474442
0.08859512332
0.08860558941
0.08861616957
0.08862688763
0.08863776528
0.08864882271
0.08866007888
0.08867155175
0.08868325835
0.08869521487
0.08870743665
0.08871993818
0.08873273308
0.08874583405
0.08875925284
0.08877300021
0.08878708584
0.08880151832
0.0888163051
0.08883145247
0.08884696549
0.08886284805
0.08887910283
0.08889573134
0.08891273395
0.08893010996
0.08894785766
0.08896597442
0.08898445679
0.08900330061
0.08902250111
0.08904205306
0.08906195084
0.08908218858
0.08910276026
0.08912365975
0.08914488089
0.08916641752
0.08918826347
0.08921041249
0.08923285821
0.08925559396
0.08927861267
0.0893019066
0.08932546714
0.08934928451
0.08937334744
0.08939764288
0.08942215562
0.08944686798
0.08947175949
0.08949680655
0.08952198222
0.08954725596
0.08957259348
0.08959795672
0.08962330377
0.08964858904
0.08967376341
0.08969877455
0.08972356731
0.0897480842
0.08977226596
0.08979605227
0.08981938241
0.0898421961
0.08986443427
0.08988603991
0.08990695891
0.08992714081
0.08994653959
0.08996511437
0.08998282997
0.08999965744
0.09001557446
0.09003056562
0.09004462253
0.09005774385
0.09006993521
0.09008120894
0.0900915837
0.09010108407
0.09010973997
0.09011758604
0.09012466096
0.09013100672
0.0901366679
0.09014169087
0.09014612312
0.09015001249
0.09015340656
0.09015635201
0.09015889411
0.09016107622
0.09016293943
0.09016452223
0.09016586029
0.09016698634
0.09016793004
0.09016871802
0.09016937392
0.09016991849
0.09017036976
0.09017074321
0.09017105201
0.09017130721
0.09017151803
0.09017169205
0.09017183549
0.09017195338
0.09017204982
0.09017212813
0.09017219102
0.09017224073
0.09017227917
0.09017230796
0.09017232856
0.09017234228
0.09017235034
0.09017235387
0.09017235392
0.0901723515
0.0901723475
0.09017234277
0.09017233803
0.09017233389
0.09017233087
0.09017232936
0.09017232964
0.09017233184
0.09017233603
0.09017234215
0.09017235006
0.09017235957
0.09017237041
0.0901723823
0.09017239493
0.09017240798
0.09017242118
0.09017243424
0.09017244692
0.09017245903
0.09017247041
0.09017248096
0.09017249061
0.09017249934
0.09017250715
0.0901725141
0.09017252023
0.09017252565
0.09017253044
0.09017253469
0.09017253851
0.09017254199
0.0901725452
0.09017254823
0.09017255113
0.09017255395
0.09017255672
0.09017255947
0.09017256221
0.09017256494
0.09017256768
0.0901725704
0.09017257311
0.09017257579
0.09017257842
0.09017258101
0.09017258352
0.09017258597
0.09017258832
0.09017259057
0.09017259272
0.09017259474
0.09017259663
0.09017259837
0.09017259995
0.09017260137
0.0901726026
0.09017260364
0.09017260447
0.09017260509
0.09017260549
0.09017260567
0.09017260562
0.09017260534
0.09017260483
0.09017260412
0.0901726032
0.09017260209
0.0901726008
0.09017259937
0.09017259781
0.09017259614
0.09017259439
0.09017259259
0.09017259076
0.09017258894
0.09017258714
0.09017258539
0.09017258373
0.09017258216
0.09017258071
0.0901725794
0.09017257824
0.09017257725
0.09017257643
0.09017257581
0.09017257537
0.09017257512
0.09017257507
0.0901725752
0.09017257553
0.09017257603
0.0901725767
0.09017257754
0.09017257852
0.09017257964
0.09017258089
0.09017258225
0.0901725837
0.09017258524
0.09017258685
0.09017258851
0.09017259022
0.09017259196
0.09017259371
0.09017259546
0.09017259721
0.09017259895
0.09017260065
0.09017260232
0.09017260394
0.09017260551
0.09017260703
0.09017260847
0.09017260985
0.09017261115
0.09017261238
0.09017261352
0.09017261459
0.09017261557
0.09017261647
0.09017261729
0.09017261804
0.0901726187
0.09017261918
)
;

boundaryField
{
    inlet
    {
        type            fixedValue;
        value           uniform 0;
    }
    outlet
    {
        type            zeroGradient;
    }
    wall
    {
        type            empty;
    }
}


// ************************************************************************* //
