/*--------------------------------*- C++ -*----------------------------------*\
  =========                 |
  \\      /  F ield         | OpenFOAM: The Open Source CFD Toolbox
   \\    /   O peration     | Website:  https://openfoam.org
    \\  /    A nd           | Version:  7
     \\/     M anipulation  |
\*---------------------------------------------------------------------------*/
FoamFile
{
    version     2.0;
    format      ascii;
    class       volScalarField;
    location    "0.000558243009";
    object      H_0;
}
// * * * * * * * * * * * * * * * * * * * * * * * * * * * * * * * * * * * * * //

dimensions      [0 0 0 0 0 0 0];

internalField   nonuniform List<scalar> 
1500
(
3.738809405e-31
3.37152455e-31
2.903515914e-31
2.495377619e-31
2.219395295e-31
2.060448216e-31
1.979257769e-31
1.941957363e-31
1.92642877e-31
1.920468537e-31
1.918239339e-31
1.917296835e-31
1.916748899e-31
1.916320388e-31
1.915948841e-31
1.915629694e-31
1.91536578e-31
1.915154951e-31
1.914990442e-31
1.914863962e-31
1.914768385e-31
1.914698545e-31
1.914651358e-31
1.914624646e-31
1.914616431e-31
1.914624108e-31
1.914644381e-31
1.914673237e-31
1.914706476e-31
1.914740129e-31
1.914770888e-31
1.914796169e-31
1.914814458e-31
1.914824904e-31
1.914827439e-31
1.914822355e-31
1.914810425e-31
1.914792526e-31
1.914769654e-31
1.914742966e-31
1.914713526e-31
1.914682455e-31
1.914650795e-31
1.91461943e-31
1.914589169e-31
1.914560513e-31
1.914533898e-31
1.914509405e-31
1.914487033e-31
1.914466596e-31
1.914447795e-31
1.914430303e-31
1.914413823e-31
1.914398082e-31
1.914382843e-31
1.91436803e-31
1.914353619e-31
1.914339695e-31
1.914326439e-31
1.914314056e-31
1.914302887e-31
1.914293237e-31
1.914285476e-31
1.914279886e-31
1.914276866e-31
1.91427669e-31
1.914279555e-31
1.914285642e-31
1.91429509e-31
1.914307853e-31
1.914323843e-31
1.914342891e-31
1.914364714e-31
1.914388933e-31
1.914415103e-31
1.914442676e-31
1.914471132e-31
1.914499826e-31
1.914528145e-31
1.914555512e-31
1.914581289e-31
1.914604948e-31
1.91462601e-31
1.914644056e-31
1.914658668e-31
1.914669674e-31
1.914676798e-31
1.914679991e-31
1.914679277e-31
1.914674706e-31
1.914666467e-31
1.914654757e-31
1.914639895e-31
1.914622283e-31
1.914602284e-31
1.91458035e-31
1.91455697e-31
1.91453263e-31
1.914507788e-31
1.914482925e-31
1.914458472e-31
1.914434824e-31
1.914412322e-31
1.914391253e-31
1.914371801e-31
1.914354165e-31
1.914338344e-31
1.914324387e-31
1.914312179e-31
1.914301635e-31
1.91429251e-31
1.914284606e-31
1.914277677e-31
1.914271457e-31
1.914265688e-31
1.914260159e-31
1.914254601e-31
1.914248897e-31
1.914242915e-31
1.914236528e-31
1.914229727e-31
1.914222514e-31
1.914214947e-31
1.914207096e-31
1.914199065e-31
1.914190972e-31
1.914182943e-31
1.91417515e-31
1.914167644e-31
1.914160608e-31
1.914154131e-31
1.914148298e-31
1.914143162e-31
1.91413884e-31
1.914135368e-31
1.914132827e-31
1.914131262e-31
1.914130711e-31
1.914131278e-31
1.91413304e-31
1.91413602e-31
1.914140393e-31
1.914146117e-31
1.914153355e-31
1.914162135e-31
1.914172564e-31
1.914184602e-31
1.914198337e-31
1.914213687e-31
1.914230633e-31
1.914249085e-31
1.914268924e-31
1.91429001e-31
1.914312148e-31
1.914335128e-31
1.914358725e-31
1.914382708e-31
1.914406789e-31
1.914430741e-31
1.914454316e-31
1.914477241e-31
1.914499301e-31
1.914520263e-31
1.914539978e-31
1.914558216e-31
1.914574851e-31
1.914589756e-31
1.914602795e-31
1.914613852e-31
1.914622853e-31
1.914629752e-31
1.914634444e-31
1.914636897e-31
1.914637056e-31
1.914634939e-31
1.914630463e-31
1.914623715e-31
1.914614676e-31
1.914603445e-31
1.914590126e-31
1.914574815e-31
1.914557753e-31
1.914539136e-31
1.914519302e-31
1.914498583e-31
1.914477357e-31
1.914456147e-31
1.914435464e-31
1.914415825e-31
1.914397853e-31
1.914382062e-31
1.914369054e-31
1.914359317e-31
1.914353215e-31
1.914351092e-31
1.914353129e-31
1.91435943e-31
1.914369942e-31
1.914384518e-31
1.914402976e-31
1.914425089e-31
1.914450543e-31
1.914479151e-31
1.914510667e-31
1.914544958e-31
1.914581802e-31
1.914621039e-31
1.914662292e-31
1.914705126e-31
1.914748794e-31
1.914792274e-31
1.914834228e-31
1.914873129e-31
1.914907221e-31
1.914934742e-31
1.91495428e-31
1.914964843e-31
1.914966222e-31
1.914959363e-31
1.914946382e-31
1.914930865e-31
1.914917602e-31
1.914912564e-31
1.914922208e-31
1.914953071e-31
1.915010926e-31
1.915099719e-31
1.91522104e-31
1.915372974e-31
1.915549938e-31
1.915742161e-31
1.915936186e-31
1.916115558e-31
1.916262185e-31
1.916358182e-31
1.916388096e-31
1.916341549e-31
1.916215425e-31
1.916016379e-31
1.915762335e-31
1.915483315e-31
1.915220944e-31
1.91502704e-31
1.914961012e-31
1.915086419e-31
1.915467649e-31
1.916165939e-31
1.917229521e-31
1.91865872e-31
1.920284213e-31
1.920948241e-31
1.921070833e-31
1.921208591e-31
1.921355461e-31
1.921508333e-31
1.921665616e-31
1.921826493e-31
1.921990578e-31
1.922157685e-31
1.92232774e-31
1.922500739e-31
1.922676699e-31
1.92285567e-31
1.923037692e-31
1.92322283e-31
1.923411148e-31
1.923602713e-31
1.923797603e-31
1.923995893e-31
1.924197682e-31
1.924403046e-31
1.924612084e-31
1.924824892e-31
1.925041579e-31
1.925262256e-31
1.925487054e-31
1.925716082e-31
1.925949494e-31
1.926187434e-31
1.926430053e-31
1.926677508e-31
1.926929986e-31
1.92718766e-31
1.927450732e-31
1.927719413e-31
1.92799393e-31
1.928274506e-31
1.928561404e-31
1.928854897e-31
1.929155272e-31
1.929462829e-31
1.929777895e-31
1.930100816e-31
1.930431961e-31
1.930771718e-31
1.931120508e-31
1.931478777e-31
1.931847007e-31
1.932225693e-31
1.932615381e-31
1.933016628e-31
1.93343005e-31
1.933856285e-31
1.934296037e-31
1.934750029e-31
1.935219047e-31
1.93570391e-31
1.936205505e-31
1.93672477e-31
1.937262701e-31
1.937820355e-31
1.938398845e-31
1.938999388e-31
1.939623242e-31
1.940271763e-31
1.94094638e-31
1.941648613e-31
1.942380075e-31
1.943142474e-31
1.943937631e-31
1.944767462e-31
1.945634026e-31
1.946539477e-31
1.947486097e-31
1.948476312e-31
1.949512697e-31
1.950597967e-31
1.951734999e-31
1.952926849e-31
1.954176714e-31
1.955488001e-31
1.956864293e-31
1.958309396e-31
1.959827309e-31
1.961422257e-31
1.963098698e-31
1.964861332e-31
1.966715105e-31
1.968665242e-31
1.97071724e-31
1.972876888e-31
1.97515027e-31
1.977543791e-31
1.980064175e-31
1.982718494e-31
1.985514178e-31
1.988459025e-31
1.991561221e-31
1.994829348e-31
1.998272398e-31
2.001899804e-31
2.005721431e-31
2.009747617e-31
2.013989167e-31
2.018457392e-31
2.023164103e-31
2.028121647e-31
2.033342921e-31
2.038841358e-31
2.044630988e-31
2.050726427e-31
2.057142914e-31
2.063896309e-31
2.071003122e-31
2.078480519e-31
2.086346345e-31
2.094619148e-31
2.103318181e-31
2.112463421e-31
2.1220756e-31
2.132176198e-31
2.142787466e-31
2.153932447e-31
2.165634997e-31
2.177919763e-31
2.190812219e-31
2.204338697e-31
2.21852636e-31
2.233403244e-31
2.24899823e-31
2.265341087e-31
2.282462478e-31
2.300393945e-31
2.319167922e-31
2.338817742e-31
2.359377637e-31
2.380882762e-31
2.403369151e-31
2.426873747e-31
2.451434377e-31
2.477089798e-31
2.503879618e-31
2.531844356e-31
2.561025381e-31
2.591464921e-31
2.623206059e-31
2.656292715e-31
2.690769644e-31
2.72668238e-31
2.76407725e-31
2.803001353e-31
2.843502502e-31
2.885629246e-31
2.929430814e-31
2.974957096e-31
3.022258596e-31
3.071386467e-31
3.122392382e-31
3.175328576e-31
3.230247753e-31
3.287203075e-31
3.346248175e-31
3.407437016e-31
3.470823912e-31
3.53646348e-31
3.604410554e-31
3.674720229e-31
3.747447689e-31
3.82264829e-31
3.900377485e-31
3.980690615e-31
4.063643106e-31
4.149290311e-31
4.237687393e-31
4.328889341e-31
4.422950935e-31
4.519926696e-31
4.619870856e-31
4.722837246e-31
4.82887923e-31
4.938049844e-31
5.050401553e-31
5.165986295e-31
5.284855397e-31
5.407059671e-31
5.532649201e-31
5.661673432e-31
5.794181102e-31
5.930220159e-31
6.069837891e-31
6.213080801e-31
6.359994612e-31
6.510624023e-31
6.665013296e-31
6.823205702e-31
6.98524377e-31
7.151169157e-31
7.321022897e-31
7.494845165e-31
7.672675343e-31
7.854552275e-31
8.040514117e-31
8.230598463e-31
8.42484227e-31
8.623282143e-31
8.825954089e-31
9.032894124e-31
9.244137677e-31
9.459720349e-31
9.679677211e-31
9.904043941e-31
1.013285641e-30
1.036615061e-30
1.060396331e-30
1.084633154e-30
1.109329356e-30
1.134488847e-30
1.160115647e-30
1.186213931e-30
1.212788071e-30
1.239842577e-30
1.267382203e-30
1.295411948e-30
1.323937037e-30
1.352963035e-30
1.382495816e-30
1.412541612e-30
1.443107072e-30
1.474199248e-30
1.505825652e-30
1.53799431e-30
1.570713861e-30
1.60399348e-30
1.637842967e-30
1.672272804e-30
1.707294271e-30
1.742919354e-30
1.779160938e-30
1.816032746e-30
1.853549522e-30
1.891727011e-30
1.93058198e-30
1.970132425e-30
2.010397547e-30
2.051397802e-30
2.093155064e-30
2.135692603e-30
2.1790353e-30
2.223209637e-30
2.268243701e-30
2.314167574e-30
2.361013107e-30
2.408814239e-30
2.45760703e-30
2.507429831e-30
2.558323331e-30
2.610330688e-30
2.663497762e-30
2.717873088e-30
2.773508076e-30
2.830457111e-30
2.888777554e-30
2.948529981e-30
3.00977901e-30
3.072596336e-30
3.137057617e-30
3.20324068e-30
3.271224609e-30
3.341092819e-30
3.412934191e-30
3.486843329e-30
3.562921156e-30
3.641274903e-30
3.722018673e-30
3.805273683e-30
3.891169516e-30
3.979844342e-30
4.07144523e-30
4.16612734e-30
4.264049716e-30
4.36537906e-30
4.470291227e-30
4.57897209e-30
4.691622308e-30
4.808456874e-30
4.929704429e-30
5.055607008e-30
5.186421542e-30
5.322421321e-30
5.463897005e-30
5.611158582e-30
5.76453647e-30
5.924383713e-30
6.091078235e-30
6.265025045e-30
6.446658157e-30
6.636444851e-30
6.834887398e-30
7.042528025e-30
7.259953198e-30
7.487797872e-30
7.726753186e-30
7.977571634e-30
8.241074294e-30
8.518163364e-30
8.809828801e-30
9.117164859e-30
9.441383305e-30
9.78383207e-30
1.014601536e-29
1.052962239e-29
1.093655257e-29
1.136895859e-29
1.182928452e-29
1.232032388e-29
1.284528104e-29
1.340784921e-29
1.401230753e-29
1.466363382e-29
1.536764655e-29
1.613117805e-29
1.696228666e-29
1.787051754e-29
1.886722607e-29
1.996597463e-29
2.118303472e-29
2.253799701e-29
2.405454441e-29
2.57614316e-29
2.769369126e-29
2.98941789e-29
3.241553476e-29
3.532266919e-29
3.869596221e-29
4.263533607e-29
4.726558465e-29
5.274322793e-29
5.926548096e-29
6.708197583e-29
7.651022062e-29
8.795604905e-29
1.019407261e-28
1.191372115e-28
1.404187228e-28
1.669241207e-28
2.001462101e-28
2.420514565e-28
2.95243055e-28
3.631834694e-28
4.504992738e-28
5.633993696e-28
7.10251356e-28
9.023762613e-28
1.155147786e-27
1.489514761e-27
1.934114539e-27
2.52821074e-27
3.325781181e-27
4.401216935e-27
5.85727423e-27
7.836182433e-27
1.053517327e-26
1.422821273e-26
1.929643346e-26
2.627077387e-26
3.589175752e-26
4.919332162e-26
6.762041283e-26
9.319395557e-26
1.287422583e-25
1.782255557e-25
2.471910705e-25
3.434109232e-25
4.777764859e-25
6.655533827e-25
9.281467854e-25
1.295597071e-24
1.810141797e-24
2.53138346e-24
3.543981633e-24
4.969534441e-24
6.985830786e-24
9.859804459e-24
1.400712235e-23
2.010520076e-23
2.931548958e-23
4.373141544e-23
6.729382314e-23
1.076738767e-22
1.801507626e-22
3.155816075e-22
5.767175713e-22
1.091438247e-21
2.120070457e-21
4.190964213e-21
8.371933097e-21
1.681011756e-20
3.379698904e-20
6.785407453e-20
1.357995645e-19
2.706472573e-19
5.36877793e-19
1.059814129e-18
2.08184623e-18
4.069514684e-18
7.916447262e-18
1.532601168e-17
2.952912624e-17
5.662367633e-17
1.080602467e-16
2.052292697e-16
3.878766636e-16
7.294491378e-16
1.364896459e-15
2.54070441e-15
4.704295144e-15
8.662570013e-15
1.586082948e-14
2.886931423e-14
5.22242791e-14
9.386803696e-14
1.675894929e-13
2.971131687e-13
5.228782034e-13
9.131366515e-13
1.581893449e-12
2.717521687e-12
4.627774629e-12
7.809572438e-12
1.305559552e-11
2.161461851e-11
3.542893201e-11
5.748037481e-11
9.228664951e-11
1.466018656e-10
2.303896961e-10
3.581540878e-10
5.50730945e-10
8.376643276e-10
1.260312095e-09
1.875848105e-09
2.762350772e-09
4.025190384e-09
5.80495016e-09
8.287138478e-09
1.171397318e-08
1.639854322e-08
2.274139629e-08
3.12518733e-08
4.256696142e-08
5.749287237e-08
7.701775874e-08
1.02359647e-07
1.349211842e-07
1.76413106e-07
2.288734126e-07
2.9467182e-07
3.765175569e-07
4.774390144e-07
6.008261645e-07
7.50602975e-07
9.313850028e-07
1.1486295e-06
1.408633075e-06
1.719092643e-06
2.086202253e-06
2.518755277e-06
3.02498708e-06
3.613970608e-06
4.291796444e-06
5.067178133e-06
5.947320126e-06
6.939130965e-06
8.046543042e-06
9.271676799e-06
1.061288644e-05
1.206403863e-05
1.361338925e-05
1.524306102e-05
1.692952733e-05
1.864241796e-05
2.035102128e-05
2.202090726e-05
2.362143924e-05
2.512522441e-05
2.651038258e-05
2.776138963e-05
2.886943115e-05
2.983052885e-05
3.064451017e-05
3.131583742e-05
3.185168239e-05
3.226102958e-05
3.255372902e-05
3.27401347e-05
3.283026808e-05
3.283315536e-05
3.275869676e-05
3.261590017e-05
3.241300567e-05
3.215801957e-05
3.185807889e-05
3.151965733e-05
3.114860284e-05
3.075017954e-05
3.032913007e-05
2.98896321e-05
2.943546897e-05
2.896998164e-05
2.849612734e-05
2.801651464e-05
2.753343644e-05
2.704890059e-05
2.65646582e-05
2.608222977e-05
2.560292899e-05
2.512788456e-05
2.465805998e-05
2.419427159e-05
2.373720479e-05
2.328742886e-05
2.284541014e-05
2.241152405e-05
2.198606585e-05
2.156926025e-05
2.116127009e-05
2.076220412e-05
2.037212387e-05
1.999104989e-05
1.961896721e-05
1.925583031e-05
1.890156746e-05
1.855608459e-05
1.821926874e-05
1.789099112e-05
1.757110976e-05
1.725947193e-05
1.69559162e-05
1.666027426e-05
1.63723726e-05
1.609203385e-05
1.581907803e-05
1.555332363e-05
1.529458852e-05
1.504269075e-05
1.479744927e-05
1.455868446e-05
1.432621868e-05
1.409987666e-05
1.387948586e-05
1.366487678e-05
1.345588317e-05
1.325234224e-05
1.305409479e-05
1.286098535e-05
1.267286225e-05
1.248957767e-05
1.231098768e-05
1.213695225e-05
1.196733524e-05
1.180200437e-05
1.164083121e-05
1.148369111e-05
1.133046315e-05
1.11810301e-05
1.103527831e-05
1.089309768e-05
1.075438155e-05
1.061902663e-05
1.048693292e-05
1.035800363e-05
1.023214508e-05
1.010926661e-05
9.989280512e-06
9.872101942e-06
9.757648814e-06
9.645841732e-06
9.536603901e-06
9.429861046e-06
9.32554133e-06
9.223575276e-06
9.123895687e-06
9.026437572e-06
8.931138072e-06
8.837936388e-06
8.74677371e-06
8.657593151e-06
8.570339677e-06
8.484960048e-06
8.401402753e-06
8.31961795e-06
8.239557409e-06
8.161174454e-06
8.08442391e-06
8.009262049e-06
7.935646542e-06
7.863536406e-06
7.79289196e-06
7.723674777e-06
7.655847642e-06
7.589374508e-06
7.524220455e-06
7.46035165e-06
7.397735314e-06
7.336339675e-06
7.276133945e-06
7.217088275e-06
7.15917373e-06
7.102362252e-06
7.046626634e-06
6.991940487e-06
6.938278215e-06
6.885614985e-06
6.833926702e-06
6.783189984e-06
6.733382138e-06
6.684481135e-06
6.63646559e-06
6.589314738e-06
6.543008414e-06
6.497527033e-06
6.452851572e-06
6.408963547e-06
6.365845001e-06
6.323478482e-06
6.281847027e-06
6.240934149e-06
6.200723817e-06
6.161200447e-06
6.12234888e-06
6.084154374e-06
6.046602589e-06
6.009679574e-06
5.973371755e-06
5.937665921e-06
5.902549214e-06
5.868009121e-06
5.834033456e-06
5.800610357e-06
5.76772827e-06
5.735375945e-06
5.703542422e-06
5.672217024e-06
5.64138935e-06
5.611049262e-06
5.581186881e-06
5.55179258e-06
5.522856972e-06
5.494370905e-06
5.466325456e-06
5.438711925e-06
5.411521824e-06
5.384746876e-06
5.358379003e-06
5.332410328e-06
5.306833161e-06
5.281639999e-06
5.256823519e-06
5.232376571e-06
5.208292178e-06
5.184563524e-06
5.161183956e-06
5.138146976e-06
5.115446237e-06
5.093075539e-06
5.071028826e-06
5.049300179e-06
5.027883818e-06
5.006774089e-06
4.985965472e-06
4.965452565e-06
4.945230093e-06
4.925292895e-06
4.905635926e-06
4.886254252e-06
4.867143048e-06
4.848297594e-06
4.829713274e-06
4.81138557e-06
4.793310064e-06
4.775482432e-06
4.757898441e-06
4.740553952e-06
4.723444909e-06
4.706567346e-06
4.689917376e-06
4.673491198e-06
4.657285085e-06
4.641295392e-06
4.625518546e-06
4.609951048e-06
4.594589472e-06
4.57943046e-06
4.564470723e-06
4.549707037e-06
4.535136246e-06
4.520755253e-06
4.506561025e-06
4.49255059e-06
4.478721031e-06
4.465069492e-06
4.451593171e-06
4.438289321e-06
4.425155248e-06
4.412188311e-06
4.399385919e-06
4.38674553e-06
4.374264652e-06
4.361940839e-06
4.349771691e-06
4.337754854e-06
4.325888018e-06
4.314168917e-06
4.302595324e-06
4.291165057e-06
4.279875972e-06
4.268725964e-06
4.257712968e-06
4.246834957e-06
4.236089937e-06
4.225475954e-06
4.214991088e-06
4.204633452e-06
4.194401195e-06
4.184292497e-06
4.17430557e-06
4.164438658e-06
4.154690038e-06
4.145058013e-06
4.135540919e-06
4.126137119e-06
4.116845005e-06
4.107662995e-06
4.098589538e-06
4.089623104e-06
4.080762195e-06
4.072005333e-06
4.063351068e-06
4.054797973e-06
4.046344647e-06
4.037989709e-06
4.029731804e-06
4.021569598e-06
4.013501778e-06
4.005527055e-06
3.997644159e-06
3.989851842e-06
3.982148875e-06
3.97453405e-06
3.967006179e-06
3.95956409e-06
3.952206634e-06
3.944932677e-06
3.937741104e-06
3.930630818e-06
3.92360074e-06
3.916649806e-06
3.909776971e-06
3.902981204e-06
3.89626149e-06
3.889616833e-06
3.883046249e-06
3.876548771e-06
3.870123444e-06
3.863769332e-06
3.85748551e-06
3.851271068e-06
3.84512511e-06
3.839046752e-06
3.833035126e-06
3.827089375e-06
3.821208655e-06
3.815392134e-06
3.809638994e-06
3.803948429e-06
3.798319642e-06
3.792751852e-06
3.787244286e-06
3.781796183e-06
3.776406794e-06
3.77107538e-06
3.765801214e-06
3.760583578e-06
3.755421764e-06
3.750315076e-06
3.745262827e-06
3.740264338e-06
3.735318943e-06
3.730425982e-06
3.725584808e-06
3.720794779e-06
3.716055265e-06
3.711365644e-06
3.706725303e-06
3.702133635e-06
3.697590046e-06
3.693093946e-06
3.688644755e-06
3.684241901e-06
3.679884819e-06
3.675572953e-06
3.671305754e-06
3.66708268e-06
3.662903196e-06
3.658766776e-06
3.654672899e-06
3.650621052e-06
3.64661073e-06
3.642641433e-06
3.638712668e-06
3.634823949e-06
3.630974796e-06
3.627164737e-06
3.623393304e-06
3.619660036e-06
3.615964478e-06
3.612306181e-06
3.608684703e-06
3.605099606e-06
3.601550458e-06
3.598036835e-06
3.594558314e-06
3.591114483e-06
3.58770493e-06
3.584329252e-06
3.580987049e-06
3.577677928e-06
3.574401499e-06
3.57115738e-06
3.56794519e-06
3.564764556e-06
3.561615108e-06
3.558496481e-06
3.555408316e-06
3.552350257e-06
3.549321952e-06
3.546323055e-06
3.543353225e-06
3.540412122e-06
3.537499413e-06
3.534614769e-06
3.531757864e-06
3.528928377e-06
3.52612599e-06
3.523350391e-06
3.520601269e-06
3.517878319e-06
3.51518124e-06
3.512509732e-06
3.509863502e-06
3.507242259e-06
3.504645715e-06
3.502073587e-06
3.499525595e-06
3.497001462e-06
3.494500915e-06
3.492023684e-06
3.489569502e-06
3.487138105e-06
3.484729234e-06
3.482342631e-06
3.479978043e-06
3.47763522e-06
3.475313912e-06
3.473013876e-06
3.47073487e-06
3.468476654e-06
3.466238994e-06
3.464021657e-06
3.461824411e-06
3.45964703e-06
3.457489289e-06
3.455350967e-06
3.453231843e-06
3.451131701e-06
3.449050328e-06
3.446987513e-06
3.444943045e-06
3.442916719e-06
3.440908332e-06
3.438917682e-06
3.436944569e-06
3.434988798e-06
3.433050174e-06
3.431128506e-06
3.429223604e-06
3.427335281e-06
3.425463351e-06
3.423607633e-06
3.421767946e-06
3.41994411e-06
3.418135951e-06
3.416343294e-06
3.414565967e-06
3.4128038e-06
3.411056625e-06
3.409324276e-06
3.407606589e-06
3.405903403e-06
3.404214558e-06
3.402539895e-06
3.400879258e-06
3.399232494e-06
3.397599448e-06
3.395979972e-06
3.394373916e-06
3.392781133e-06
3.391201478e-06
3.389634807e-06
3.388080978e-06
3.386539852e-06
3.38501129e-06
3.383495155e-06
3.381991312e-06
3.380499628e-06
3.379019969e-06
3.377552207e-06
3.376096213e-06
3.374651858e-06
3.373219017e-06
3.371797566e-06
3.370387383e-06
3.368988345e-06
3.367600332e-06
3.366223227e-06
3.364856912e-06
3.363501272e-06
3.362156191e-06
3.360821558e-06
3.35949726e-06
3.358183186e-06
3.356879229e-06
3.355585279e-06
3.354301231e-06
3.353026979e-06
3.351762419e-06
3.350507448e-06
3.349261964e-06
3.348025868e-06
3.346799058e-06
3.345581439e-06
3.344372911e-06
3.34317338e-06
3.34198275e-06
3.340800928e-06
3.339627821e-06
3.338463338e-06
3.337307387e-06
3.33615988e-06
3.335020727e-06
3.333889842e-06
3.332767138e-06
3.33165253e-06
3.330545933e-06
3.329447263e-06
3.328356439e-06
3.327273379e-06
3.326198002e-06
3.325130228e-06
3.32406998e-06
3.32301718e-06
3.321971752e-06
3.320933619e-06
3.319902708e-06
3.318878944e-06
3.317862256e-06
3.316852572e-06
3.315849822e-06
3.314853938e-06
3.31386485e-06
3.312882492e-06
3.311906799e-06
3.310937707e-06
3.309975153e-06
3.309019075e-06
3.308069414e-06
3.307126113e-06
3.306189114e-06
3.305258363e-06
3.304333807e-06
3.303415398e-06
3.302503086e-06
3.301596827e-06
3.300696578e-06
3.2998023e-06
3.298913958e-06
3.29803152e-06
3.297154958e-06
3.29628425e-06
3.295419378e-06
3.294560332e-06
3.293707107e-06
3.292859705e-06
3.29201814e-06
3.291182433e-06
3.290352616e-06
3.289528733e-06
3.288710842e-06
3.287899014e-06
3.287093335e-06
3.280587156e-06
3.270502091e-06
3.261668484e-06
3.253959384e-06
3.247305288e-06
3.241659658e-06
3.236987177e-06
3.233259304e-06
3.230452045e-06
3.228544565e-06
3.227518224e-06
3.227355863e-06
3.228041252e-06
3.229558649e-06
3.231892445e-06
3.235026878e-06
3.238945798e-06
3.243632486e-06
3.249069503e-06
3.255238579e-06
3.26212052e-06
3.269695149e-06
3.277941257e-06
3.286836569e-06
3.296357723e-06
3.306480255e-06
3.317178594e-06
3.328426056e-06
3.340194849e-06
3.352456073e-06
3.365179734e-06
3.378334749e-06
3.391888969e-06
3.405809203e-06
3.420061247e-06
3.434609929e-06
3.449419166e-06
3.464452029e-06
3.479670832e-06
3.495037229e-06
3.510512342e-06
3.526056889e-06
3.541631353e-06
3.557196148e-06
3.572711813e-06
3.588139219e-06
3.60343978e-06
3.618575688e-06
3.633510131e-06
3.648207535e-06
3.662633783e-06
3.676756445e-06
3.690544984e-06
3.703970959e-06
3.717008205e-06
3.729632998e-06
3.741824199e-06
3.753563371e-06
3.76483488e-06
3.775625964e-06
3.785926783e-06
3.795730439e-06
3.805032965e-06
3.813833303e-06
3.822133236e-06
3.829937306e-06
3.8372527e-06
3.84408911e-06
3.850458567e-06
3.85637525e-06
3.86185527e-06
3.866916431e-06
3.871577978e-06
3.875860325e-06
3.879784766e-06
3.883373191e-06
3.886647792e-06
3.889630775e-06
3.892344082e-06
3.894809127e-06
3.897046558e-06
3.899076044e-06
3.900916089e-06
3.90258389e-06
3.904095225e-06
3.90546439e-06
3.906704167e-06
3.907825846e-06
3.908839265e-06
3.909752909e-06
3.910574015e-06
3.911308723e-06
3.911962231e-06
3.912538967e-06
3.913042772e-06
3.913477066e-06
3.913845026e-06
3.91414973e-06
3.914394295e-06
3.914581983e-06
3.914716285e-06
3.914800972e-06
3.914840122e-06
3.914838114e-06
3.914799594e-06
3.914729427e-06
3.914632619e-06
3.914514229e-06
3.914379273e-06
3.914232622e-06
3.914078901e-06
3.913922393e-06
3.913766958e-06
3.913615961e-06
3.913472219e-06
3.913337969e-06
3.913214852e-06
3.913103924e-06
3.913005673e-06
3.912920072e-06
3.912846626e-06
3.912784449e-06
3.912732338e-06
3.912688856e-06
3.912652417e-06
3.912621363e-06
3.912594047e-06
3.912568894e-06
3.912544466e-06
3.912519502e-06
3.912492957e-06
3.912464022e-06
3.91243213e-06
3.912396956e-06
3.912358404e-06
3.912316582e-06
3.912271777e-06
3.912224416e-06
3.912175039e-06
3.91212425e-06
3.912072692e-06
3.912021007e-06
3.911969811e-06
3.911919664e-06
3.911871059e-06
3.911824401e-06
3.911780004e-06
3.911738088e-06
3.911698782e-06
3.911662127e-06
3.911628093e-06
3.91159658e-06
3.911567445e-06
3.911540501e-06
3.911515543e-06
3.911492351e-06
3.911470707e-06
3.911450399e-06
3.911431235e-06
3.911413038e-06
3.91139566e-06
3.911378973e-06
3.911362878e-06
3.911347297e-06
3.911332175e-06
3.911317475e-06
3.911303176e-06
3.911289269e-06
3.911275758e-06
3.911262653e-06
3.911249973e-06
3.911237741e-06
3.911225982e-06
3.911214728e-06
3.911204014e-06
3.911193874e-06
3.911184349e-06
3.911175481e-06
3.911167311e-06
3.911159883e-06
3.911153241e-06
3.911147427e-06
3.911142479e-06
3.911138433e-06
3.911135316e-06
3.911133151e-06
3.911131949e-06
3.911131714e-06
3.911132435e-06
3.911134092e-06
3.911136652e-06
3.911140069e-06
3.911144287e-06
3.911149236e-06
3.911154838e-06
3.911161003e-06
3.911167636e-06
3.911174636e-06
3.911181894e-06
3.911189302e-06
3.911196749e-06
3.911204126e-06
3.911211327e-06
3.911218247e-06
3.911224791e-06
3.911230868e-06
3.911236395e-06
3.911241299e-06
3.911245518e-06
3.911248998e-06
3.911251698e-06
3.911253584e-06
3.911254638e-06
3.91125485e-06
3.91125422e-06
3.911252759e-06
3.911250486e-06
3.911247429e-06
3.911243625e-06
3.911239114e-06
3.911233945e-06
3.91122817e-06
3.911221846e-06
3.911215032e-06
3.911207789e-06
3.91120018e-06
3.911192267e-06
3.911184113e-06
3.911175779e-06
3.911167326e-06
3.911158812e-06
3.911150293e-06
3.911141823e-06
3.911133453e-06
3.911125229e-06
3.911117196e-06
3.911109393e-06
3.911101857e-06
3.911094621e-06
3.911087714e-06
3.911081159e-06
3.911074979e-06
3.911069188e-06
3.911063801e-06
3.911058827e-06
3.911054274e-06
3.911050155e-06
3.911046504e-06
3.91104344e-06
3.911041339e-06
)
;

boundaryField
{
    inlet
    {
        type            fixedValue;
        value           uniform 0;
    }
    outlet
    {
        type            zeroGradient;
    }
    wall
    {
        type            empty;
    }
}


// ************************************************************************* //
