/*--------------------------------*- C++ -*----------------------------------*\
  =========                 |
  \\      /  F ield         | OpenFOAM: The Open Source CFD Toolbox
   \\    /   O peration     | Website:  https://openfoam.org
    \\  /    A nd           | Version:  7
     \\/     M anipulation  |
\*---------------------------------------------------------------------------*/
FoamFile
{
    version     2.0;
    format      ascii;
    class       volScalarField;
    location    "0.000558243009";
    object      HCCO_0;
}
// * * * * * * * * * * * * * * * * * * * * * * * * * * * * * * * * * * * * * //

dimensions      [0 0 0 0 0 0 0];

internalField   nonuniform List<scalar> 
1500
(
6.323220588e-34
2.177829414e-33
3.739047433e-33
4.685052058e-33
5.103975389e-33
5.261137044e-33
5.316431891e-33
5.335517431e-33
5.341748551e-33
5.343256446e-33
5.342938379e-33
5.341853792e-33
5.340445217e-33
5.338952344e-33
5.33753266e-33
5.336281814e-33
5.33524029e-33
5.334406719e-33
5.333755989e-33
5.333255898e-33
5.332878103e-33
5.332602504e-33
5.332416547e-33
5.332311852e-33
5.332280457e-33
5.332312192e-33
5.332393781e-33
5.332509474e-33
5.332642638e-33
5.332777568e-33
5.332901008e-33
5.333003032e-33
5.333077263e-33
5.333120563e-33
5.333132422e-33
5.33311427e-33
5.333068855e-33
5.332999744e-33
5.332910984e-33
5.332806875e-33
5.332691799e-33
5.332570069e-33
5.332445745e-33
5.33232245e-33
5.332203183e-33
5.332090178e-33
5.331984834e-33
5.33188773e-33
5.331798715e-33
5.331717067e-33
5.331641685e-33
5.331571301e-33
5.331504669e-33
5.331440727e-33
5.331378708e-33
5.331318211e-33
5.331259227e-33
5.331202123e-33
5.331147609e-33
5.331096669e-33
5.331050499e-33
5.331010431e-33
5.330977857e-33
5.330954164e-33
5.330940656e-33
5.330938493e-33
5.330948627e-33
5.33097174e-33
5.331008202e-33
5.331058032e-33
5.331120871e-33
5.331195972e-33
5.331282211e-33
5.331378106e-33
5.331481856e-33
5.331591398e-33
5.331704465e-33
5.331818662e-33
5.331931535e-33
5.332040652e-33
5.33214367e-33
5.332238404e-33
5.332322887e-33
5.332395416e-33
5.332454593e-33
5.332499356e-33
5.332528987e-33
5.332543122e-33
5.332541746e-33
5.33252518e-33
5.332494065e-33
5.332449335e-33
5.332392186e-33
5.332324044e-33
5.332246522e-33
5.332161374e-33
5.332070451e-33
5.331975643e-33
5.331878835e-33
5.331781848e-33
5.331686393e-33
5.331594019e-33
5.331506071e-33
5.331423654e-33
5.331347602e-33
5.331278462e-33
5.33121649e-33
5.331161651e-33
5.331113643e-33
5.331071925e-33
5.33103576e-33
5.331004261e-33
5.330976445e-33
5.330951292e-33
5.330927797e-33
5.330905025e-33
5.330882151e-33
5.330858499e-33
5.330833566e-33
5.330807031e-33
5.330778758e-33
5.330748789e-33
5.330717319e-33
5.330684673e-33
5.330651277e-33
5.330617619e-33
5.330584223e-33
5.33055162e-33
5.33052032e-33
5.330490797e-33
5.330463479e-33
5.330438744e-33
5.33041692e-33
5.330398297e-33
5.330383135e-33
5.33037168e-33
5.330364173e-33
5.330360866e-33
5.330362025e-33
5.330367939e-33
5.330378913e-33
5.330395266e-33
5.330417314e-33
5.330445361e-33
5.330479672e-33
5.330520457e-33
5.33056785e-33
5.330621886e-33
5.330682486e-33
5.330749447e-33
5.330822429e-33
5.330900959e-33
5.330984431e-33
5.331072119e-33
5.331163194e-33
5.33125674e-33
5.33135178e-33
5.331447304e-33
5.331542289e-33
5.331635728e-33
5.331726649e-33
5.331814134e-33
5.331897336e-33
5.331975482e-33
5.332047883e-33
5.332113929e-33
5.33217309e-33
5.332224905e-33
5.332268977e-33
5.332304964e-33
5.332332577e-33
5.332351569e-33
5.332361741e-33
5.332362941e-33
5.332355073e-33
5.332338104e-33
5.332312083e-33
5.33227715e-33
5.332233566e-33
5.332181723e-33
5.332122177e-33
5.332055663e-33
5.331983122e-33
5.331905716e-33
5.33182484e-33
5.331742122e-33
5.331659413e-33
5.331578756e-33
5.331502338e-33
5.331432423e-33
5.331371267e-33
5.331321018e-33
5.331283611e-33
5.331260673e-33
5.331253432e-33
5.331262663e-33
5.33128867e-33
5.331331303e-33
5.331390027e-33
5.331464025e-33
5.331552317e-33
5.33165389e-33
5.331767799e-33
5.331893224e-33
5.332029459e-33
5.332175812e-33
5.332331434e-33
5.332495072e-33
5.332664792e-33
5.332837713e-33
5.333009828e-33
5.33317595e-33
5.333329874e-33
5.333464772e-33
5.333573854e-33
5.333651268e-33
5.333693175e-33
5.333698887e-33
5.333671932e-33
5.333620858e-33
5.333559604e-33
5.333507267e-33
5.333487144e-33
5.333524988e-33
5.333646512e-33
5.3338743e-33
5.334224341e-33
5.33470258e-33
5.335301888e-33
5.33599994e-33
5.33675848e-33
5.337524351e-33
5.3382326e-33
5.338811731e-33
5.339190976e-33
5.339309166e-33
5.339124526e-33
5.338624479e-33
5.337834344e-33
5.336823805e-33
5.335710107e-33
5.334657283e-33
5.333871391e-33
5.333592337e-33
5.334083755e-33
5.33562046e-33
5.338468183e-33
5.342828135e-33
5.348675468e-33
5.355288242e-33
5.35782546e-33
5.358430319e-33
5.359058865e-33
5.359702978e-33
5.360360555e-33
5.36103115e-33
5.361714816e-33
5.362411789e-33
5.363122389e-33
5.363846981e-33
5.364585957e-33
5.365339731e-33
5.366108735e-33
5.366893422e-33
5.367694271e-33
5.368511782e-33
5.369346488e-33
5.37019895e-33
5.371069763e-33
5.371959556e-33
5.372868994e-33
5.373798784e-33
5.37474967e-33
5.375722443e-33
5.376717936e-33
5.377737033e-33
5.378780667e-33
5.379849827e-33
5.380945556e-33
5.382068958e-33
5.3832212e-33
5.384403513e-33
5.385617201e-33
5.386863637e-33
5.388144276e-33
5.389460649e-33
5.390814375e-33
5.392207161e-33
5.39364081e-33
5.39511722e-33
5.396638395e-33
5.398206447e-33
5.3998236e-33
5.401492198e-33
5.40321471e-33
5.404993735e-33
5.406832009e-33
5.408732409e-33
5.410697965e-33
5.412731859e-33
5.414837438e-33
5.41701822e-33
5.419277899e-33
5.421620356e-33
5.424049663e-33
5.426570097e-33
5.429186141e-33
5.4319025e-33
5.434724105e-33
5.437656125e-33
5.440703973e-33
5.44387332e-33
5.447170104e-33
5.450600536e-33
5.454171118e-33
5.457888645e-33
5.461760225e-33
5.465793283e-33
5.469995577e-33
5.474375207e-33
5.47894063e-33
5.483700668e-33
5.488664526e-33
5.493841799e-33
5.499242491e-33
5.50487702e-33
5.510756241e-33
5.516891452e-33
5.523294411e-33
5.52997735e-33
5.536952986e-33
5.544234542e-33
5.551835752e-33
5.559770884e-33
5.568054748e-33
5.576702716e-33
5.585730732e-33
5.59515533e-33
5.604993649e-33
5.615263442e-33
5.6259831e-33
5.637171658e-33
5.648848817e-33
5.66103495e-33
5.673751127e-33
5.68701912e-33
5.700861422e-33
5.715301259e-33
5.730362605e-33
5.746070196e-33
5.762449539e-33
5.779526931e-33
5.797329468e-33
5.815885055e-33
5.835222424e-33
5.85537114e-33
5.876361613e-33
5.898225109e-33
5.92099376e-33
5.944700575e-33
5.969379442e-33
5.995065144e-33
6.021793363e-33
6.049600684e-33
6.078524606e-33
6.108603542e-33
6.139876829e-33
6.172384726e-33
6.206168419e-33
6.241270026e-33
6.277732591e-33
6.31560009e-33
6.354917427e-33
6.395730434e-33
6.438085865e-33
6.482031396e-33
6.527615615e-33
6.574888023e-33
6.623899019e-33
6.674699896e-33
6.727342834e-33
6.781880883e-33
6.838367959e-33
6.896858826e-33
6.957409085e-33
7.020075157e-33
7.084914272e-33
7.151984446e-33
7.221344468e-33
7.293053879e-33
7.367172952e-33
7.443762674e-33
7.522884721e-33
7.604601434e-33
7.688975803e-33
7.776071434e-33
7.86595253e-33
7.958683862e-33
8.054330746e-33
8.152959013e-33
8.254634983e-33
8.359425437e-33
8.46739759e-33
8.57861906e-33
8.693157843e-33
8.811082283e-33
8.93246104e-33
9.057363068e-33
9.185857583e-33
9.318014033e-33
9.453902078e-33
9.593591555e-33
9.737152457e-33
9.884654905e-33
1.003616913e-32
1.019176544e-32
1.03515142e-32
1.051548584e-32
1.068375077e-32
1.085637944e-32
1.103344228e-32
1.121500969e-32
1.140115205e-32
1.159193968e-32
1.178744287e-32
1.198773185e-32
1.219287681e-32
1.24029479e-32
1.261801519e-32
1.283814878e-32
1.306341872e-32
1.329389508e-32
1.352964793e-32
1.377074743e-32
1.40172638e-32
1.42692674e-32
1.452682874e-32
1.479001854e-32
1.505890779e-32
1.533356778e-32
1.561407022e-32
1.590048724e-32
1.619289151e-32
1.649135631e-32
1.679595562e-32
1.710676423e-32
1.742385781e-32
1.774731306e-32
1.807720781e-32
1.841362114e-32
1.875663353e-32
1.910632698e-32
1.946278521e-32
1.982609376e-32
2.01963402e-32
2.05736143e-32
2.09580082e-32
2.134961664e-32
2.174853715e-32
2.215487025e-32
2.256871974e-32
2.299019285e-32
2.341940056e-32
2.385645785e-32
2.430148395e-32
2.475460263e-32
2.521594251e-32
2.568563736e-32
2.616382642e-32
2.665065473e-32
2.714627349e-32
2.76508404e-32
2.816452005e-32
2.86874843e-32
2.921991266e-32
2.976199276e-32
3.031392071e-32
3.08759016e-32
3.144814994e-32
3.203089013e-32
3.262435696e-32
3.322879612e-32
3.384446472e-32
3.447163182e-32
3.511057905e-32
3.576160112e-32
3.642500643e-32
3.710111774e-32
3.779027276e-32
3.849282482e-32
3.920914355e-32
3.99396156e-32
4.068464534e-32
4.144465563e-32
4.22200886e-32
4.301140642e-32
4.381909217e-32
4.464365065e-32
4.548560932e-32
4.634551917e-32
4.722395568e-32
4.812151983e-32
4.90388391e-32
4.997656851e-32
5.093539175e-32
5.191602233e-32
5.291920478e-32
5.394571602e-32
5.499636687e-32
5.607200366e-32
5.717350862e-32
5.830179219e-32
5.945775528e-32
6.06422202e-32
6.185651158e-32
6.310197567e-32
6.437988061e-32
6.569109255e-32
6.703666792e-32
6.841781122e-32
6.983581882e-32
7.129205676e-32
7.278795588e-32
7.432501278e-32
7.590479564e-32
7.752896072e-32
7.919930341e-32
8.09178795e-32
8.268705361e-32
8.450847788e-32
8.638399032e-32
8.831555291e-32
9.030505944e-32
9.235479848e-32
9.446735807e-32
9.664530833e-32
9.889128488e-32
1.012080358e-31
1.035984399e-31
1.060655167e-31
1.086124359e-31
1.11242528e-31
1.139592955e-31
1.167664263e-31
1.196678084e-31
1.226675455e-31
1.257699761e-31
1.289796933e-31
1.323015676e-31
1.35740773e-31
1.393028155e-31
1.429935657e-31
1.468192957e-31
1.507867201e-31
1.549030434e-31
1.591760126e-31
1.636139775e-31
1.682259591e-31
1.730217264e-31
1.780118849e-31
1.832079763e-31
1.886225924e-31
1.942695041e-31
2.001638097e-31
2.063221022e-31
2.127626615e-31
2.195056724e-31
2.26573475e-31
2.339908487e-31
2.41785338e-31
2.499876238e-31
2.586319486e-31
2.677566012e-31
2.774044726e-31
2.876236899e-31
2.984683433e-31
3.099993162e-31
3.222852362e-31
3.354035634e-31
3.494418358e-31
3.64499096e-31
3.806875241e-31
3.981343094e-31
4.169837929e-31
4.373999233e-31
4.595690715e-31
4.83703256e-31
5.100438411e-31
5.388657782e-31
5.70482469e-31
6.052513474e-31
6.435802838e-31
6.85934939e-31
7.32847211e-31
7.849249407e-31
8.428630732e-31
9.074564997e-31
9.796148472e-31
1.060379528e-30
1.150943419e-30
1.252673614e-30
1.367137779e-30
1.496134749e-30
1.641730173e-30
1.806298172e-30
1.992570284e-30
2.203693292e-30
2.443298067e-30
2.715582267e-30
3.025410784e-30
3.378439398e-30
3.781269368e-30
4.241644176e-30
4.768704913e-30
5.373328844e-30
6.068588146e-30
6.870385038e-30
7.798349553e-30
8.877132986e-30
1.013830352e-29
1.16231659e-29
1.338700889e-29
1.55055715e-29
1.808497316e-29
2.127707383e-29
2.530337367e-29
3.049238227e-29
3.733828751e-29
4.659338379e-29
5.941412207e-29
7.759250386e-29
1.039235761e-28
1.427904022e-28
2.010972411e-28
2.897614445e-28
4.261038901e-28
6.376881142e-28
9.685018296e-28
1.488937794e-27
2.311954997e-27
3.619291705e-27
5.703803161e-27
9.03594629e-27
1.438378093e-26
2.298776657e-26
3.688853173e-26
5.952145052e-26
9.626053008e-26
1.564082937e-25
2.549445704e-25
4.171103336e-25
6.856986356e-25
1.132680717e-24
1.880687563e-24
3.140063168e-24
5.274332168e-24
8.916846925e-24
1.518056992e-23
2.603910233e-23
4.50259945e-23
7.853234575e-23
1.382425067e-22
2.45762205e-22
4.415265476e-22
8.021898425e-22
1.475106637e-21
2.747944736e-21
5.192281896e-21
9.967735165e-21
1.948734558e-20
3.893097722e-20
7.984136075e-20
1.690624961e-19
3.718993404e-19
8.541797775e-19
2.052495609e-18
5.147218431e-18
1.338151593e-17
3.572578174e-17
9.696504465e-17
2.651071102e-16
7.246856368e-16
1.969369631e-15
5.298500943e-15
1.407167723e-14
3.681301763e-14
9.47275595e-14
2.394981364e-13
5.944627993e-13
1.447656411e-12
3.456330163e-12
8.08383949e-12
1.8520753e-11
4.157279618e-11
9.142440512e-11
1.968765788e-10
4.150590706e-10
8.564666329e-10
1.730320165e-09
3.420067713e-09
6.624841901e-09
1.256657793e-08
2.334489092e-08
4.224023432e-08
7.481789339e-08
1.296906685e-07
2.199426106e-07
3.649001094e-07
5.92479721e-07
9.423568271e-07
1.471234106e-06
2.256993576e-06
3.407218957e-06
5.065403659e-06
7.436150513e-06
1.071200638e-05
1.518635109e-05
2.116854234e-05
2.903331636e-05
3.899810862e-05
5.136415573e-05
6.627855415e-05
8.373347179e-05
0.0001034139722
0.0001247184892
0.000146712968
0.0001681800852
0.000187742172
0.0002040465527
0.0002160093559
0.000222922321
0.000224640119
0.0002214502229
0.0002140223396
0.0002032200331
0.000189973276
0.0001751728444
0.0001595514207
0.0001437297366
0.0001282996526
0.0001136342358
9.997669627e-05
8.746485888e-05
7.61563881e-05
6.604555555e-05
5.708700363e-05
4.920543516e-05
4.235945396e-05
3.639586614e-05
3.120145432e-05
2.671647382e-05
2.285376993e-05
1.953388646e-05
1.668554248e-05
1.424544004e-05
1.215821922e-05
1.037403101e-05
8.850587909e-06
7.550726113e-06
6.442259961e-06
5.497406307e-06
4.692250589e-06
4.006258444e-06
3.421834581e-06
2.923928577e-06
2.499685751e-06
2.138140238e-06
1.82994689e-06
1.567148254e-06
1.342972924e-06
1.151661669e-06
9.883179684e-07
8.487798601e-07
7.295102938e-07
6.275034873e-07
5.402050731e-07
4.654440907e-07
4.013751281e-07
3.464291415e-07
2.99271681e-07
2.587674274e-07
2.239501001e-07
1.939969307e-07
1.68207015e-07
1.459829559e-07
1.268152988e-07
1.102693329e-07
9.597389916e-08
8.361189788e-08
7.291223544e-08
6.364299112e-08
5.560561677e-08
4.863001154e-08
4.25703381e-08
3.730146694e-08
3.271595324e-08
2.872146508e-08
2.523859454e-08
2.219899358e-08
1.954378553e-08
1.722221083e-08
1.519047141e-08
1.341074425e-08
1.185033864e-08
1.048097566e-08
9.27817191e-09
8.220711856e-09
7.290195803e-09
6.47065237e-09
5.748206007e-09
5.110791509e-09
4.547908722e-09
4.050411599e-09
3.610326667e-09
3.220696678e-09
2.875445845e-09
2.569263592e-09
2.297504192e-09
2.056100052e-09
1.841486735e-09
1.650538069e-09
1.480509949e-09
1.328991619e-09
1.193863414e-09
1.073260066e-09
9.655388259e-10
8.692517328e-10
7.831214869e-10
7.060204288e-10
6.369522163e-10
5.750358375e-10
5.194916525e-10
4.696291944e-10
4.248365018e-10
3.845707806e-10
3.483502252e-10
3.157468477e-10
2.863801872e-10
2.599117859e-10
2.360403356e-10
2.144974093e-10
1.950437051e-10
1.774657374e-10
1.615729214e-10
1.471950009e-10
1.34179778e-10
1.223911075e-10
1.117071241e-10
1.02018674e-10
9.322792666e-11
8.524714457e-11
7.799759298e-11
7.140857259e-11
6.541656074e-11
5.996444865e-11
5.500086322e-11
5.047956387e-11
4.63589056e-11
4.260136075e-11
3.917309275e-11
3.604357603e-11
3.318525678e-11
3.057325001e-11
2.818506894e-11
2.600038303e-11
2.400080147e-11
2.216967948e-11
2.049194475e-11
1.895394192e-11
1.754329312e-11
1.624877292e-11
1.506019593e-11
1.396831601e-11
1.296473556e-11
1.204182403e-11
1.119264459e-11
1.041088811e-11
9.690813688e-12
9.027195131e-12
8.415272618e-12
7.850709153e-12
7.329551255e-12
6.848193455e-12
6.403346234e-12
5.992007043e-12
5.611434094e-12
5.259122659e-12
4.932783606e-12
4.630323977e-12
4.349829377e-12
4.089548031e-12
3.847876308e-12
3.623345607e-12
3.41461044e-12
3.220437621e-12
3.039696446e-12
2.871349761e-12
2.714445852e-12
2.568111062e-12
2.431543075e-12
2.304004804e-12
2.184818824e-12
2.073362302e-12
1.969062373e-12
1.871391929e-12
1.779865775e-12
1.694037125e-12
1.613494398e-12
1.537858298e-12
1.466779145e-12
1.399934436e-12
1.337026615e-12
1.277781036e-12
1.221944095e-12
1.169281529e-12
1.119576849e-12
1.072629911e-12
1.02825561e-12
9.86282673e-13
9.465525648e-13
9.089184756e-13
8.73244397e-13
8.394042728e-13
8.072812202e-13
7.767668143e-13
7.477604311e-13
7.201686444e-13
6.939046711e-13
6.688878615e-13
6.450432307e-13
6.223010275e-13
6.005963378e-13
5.798687196e-13
5.600618673e-13
5.411233019e-13
5.230040859e-13
5.056585614e-13
4.890441071e-13
4.731209162e-13
4.578517897e-13
4.432019472e-13
4.291388512e-13
4.15632046e-13
4.026530081e-13
3.901750081e-13
3.781729839e-13
3.666234226e-13
3.555042517e-13
3.447947386e-13
3.344753975e-13
3.245279036e-13
3.149350127e-13
3.056804883e-13
2.967490326e-13
2.881262236e-13
2.797984563e-13
2.717528884e-13
2.639773899e-13
2.564604962e-13
2.49191365e-13
2.421597359e-13
2.353558929e-13
2.287706298e-13
2.223952179e-13
2.162213761e-13
2.10241243e-13
2.044473508e-13
1.988326012e-13
1.933902434e-13
1.881138525e-13
1.829973104e-13
1.780347878e-13
1.732207267e-13
1.685498254e-13
1.64017023e-13
1.596174863e-13
1.553465964e-13
1.511999371e-13
1.471732837e-13
1.432625923e-13
1.394639899e-13
1.357737657e-13
1.321883621e-13
1.287043667e-13
1.253185049e-13
1.220276329e-13
1.188287306e-13
1.157188958e-13
1.126953385e-13
1.097553749e-13
1.068964224e-13
1.04115995e-13
1.014116985e-13
9.878122617e-14
9.622235481e-14
9.373294086e-14
9.131091681e-14
8.89542878e-14
8.666112841e-14
8.442957958e-14
8.225784581e-14
8.014419237e-14
7.808694281e-14
7.608447646e-14
7.413522618e-14
7.223767612e-14
7.03903597e-14
6.859185761e-14
6.684079597e-14
6.513584453e-14
6.347571498e-14
6.185915939e-14
6.028496863e-14
5.875197095e-14
5.725903058e-14
5.580504642e-14
5.438895075e-14
5.30097081e-14
5.166631401e-14
5.0357794e-14
4.908320249e-14
4.784162181e-14
4.663216125e-14
4.545395611e-14
4.430616686e-14
4.318797826e-14
4.209859859e-14
4.103725885e-14
4.0003212e-14
3.899573231e-14
3.80141146e-14
3.705767364e-14
3.612574346e-14
3.52176768e-14
3.433284449e-14
3.347063489e-14
3.263045335e-14
3.18117217e-14
3.10138777e-14
3.023637464e-14
2.947868079e-14
2.874027897e-14
2.802066616e-14
2.7319353e-14
2.663586346e-14
2.596973441e-14
2.532051524e-14
2.46877675e-14
2.407106457e-14
2.346999127e-14
2.288414357e-14
2.231312826e-14
2.175656262e-14
2.121407416e-14
2.06853003e-14
2.016988809e-14
1.966749395e-14
1.91777834e-14
1.870043082e-14
1.823511917e-14
1.778153981e-14
1.733939218e-14
1.690838366e-14
1.648822929e-14
1.607865162e-14
1.567938044e-14
1.529015262e-14
1.49107119e-14
1.454080873e-14
1.418020005e-14
1.382864913e-14
1.348592542e-14
1.315180435e-14
1.282606716e-14
1.250850081e-14
1.219889776e-14
1.189705583e-14
1.16027781e-14
1.131587271e-14
1.103615278e-14
1.076343624e-14
1.049754573e-14
1.023830844e-14
9.985556003e-15
9.739124415e-15
9.498853864e-15
9.264588654e-15
9.036177082e-15
8.813471332e-15
8.596327384e-15
8.384604908e-15
8.178167163e-15
7.97688091e-15
7.780616319e-15
7.589246876e-15
7.402649299e-15
7.220703455e-15
7.043292273e-15
6.870301668e-15
6.701620463e-15
6.537140308e-15
6.376755617e-15
6.220363491e-15
6.067863646e-15
5.919158348e-15
5.774152348e-15
5.632752812e-15
5.494869266e-15
5.360413533e-15
5.22929967e-15
5.101443913e-15
4.976764622e-15
4.855182222e-15
4.736619158e-15
4.620999833e-15
4.508250565e-15
4.398299533e-15
4.291076738e-15
4.186513945e-15
4.084544639e-15
3.985103994e-15
3.888128812e-15
3.793557494e-15
3.701329996e-15
3.611387785e-15
3.523673806e-15
3.438132439e-15
3.354709467e-15
3.273352038e-15
3.19400863e-15
3.116629017e-15
3.04116424e-15
2.96756657e-15
2.895789474e-15
2.825787594e-15
2.757516708e-15
2.690933706e-15
2.625996561e-15
2.562664302e-15
2.500896984e-15
2.440655665e-15
2.38190238e-15
2.324600118e-15
2.268712793e-15
2.214205223e-15
2.161043111e-15
2.10919302e-15
2.058622346e-15
2.009299303e-15
1.9611929e-15
1.914272925e-15
1.868509917e-15
1.823875155e-15
1.780340635e-15
1.737879054e-15
1.696463788e-15
1.656068885e-15
1.616669036e-15
1.578239568e-15
1.540756419e-15
1.504196131e-15
1.468535832e-15
1.433753218e-15
1.399826544e-15
1.366734606e-15
1.334456729e-15
1.302972751e-15
1.272263014e-15
1.242308352e-15
1.213090074e-15
1.184589956e-15
1.156790226e-15
1.129673557e-15
1.103223047e-15
1.07742222e-15
1.052255009e-15
1.027705744e-15
1.003759146e-15
9.804003113e-16
9.576147111e-16
9.353881758e-16
9.137068862e-16
8.925573675e-16
8.719264775e-16
8.518013992e-16
8.321696331e-16
8.130189893e-16
7.943375779e-16
7.761138041e-16
7.583363607e-16
7.409942171e-16
7.240766147e-16
7.07573061e-16
6.914733206e-16
6.757674102e-16
6.604455898e-16
6.454983602e-16
6.30916454e-16
6.166908299e-16
6.02812668e-16
5.892733614e-16
5.760645143e-16
5.631779331e-16
5.506056225e-16
5.383397822e-16
5.26372796e-16
5.146972312e-16
5.033058348e-16
4.921915254e-16
4.813473889e-16
4.707666758e-16
4.60442796e-16
4.503693119e-16
4.405399352e-16
4.309485248e-16
4.215890801e-16
4.124557376e-16
4.035427652e-16
3.948445624e-16
3.863556513e-16
3.780706778e-16
3.699844032e-16
3.620917043e-16
3.543875694e-16
3.468670929e-16
3.395254747e-16
3.323580144e-16
3.253601113e-16
3.18527261e-16
3.118550525e-16
3.053391668e-16
2.989753767e-16
2.927595429e-16
2.866876151e-16
2.807556315e-16
2.749597189e-16
2.692960969e-16
2.637610758e-16
2.583510622e-16
2.53062562e-16
2.478921853e-16
2.428366522e-16
2.378927976e-16
2.330575782e-16
2.283280783e-16
2.237015152e-16
2.191752399e-16
2.147467395e-16
2.104136254e-16
2.061736164e-16
1.724061977e-16
1.352574717e-16
1.093139149e-16
9.100183871e-17
7.803199463e-17
6.884935515e-17
6.236776758e-17
5.781995159e-17
5.466090774e-17
5.250260304e-17
5.10686676e-17
5.016254853e-17
4.964444992e-17
4.941536629e-17
4.940541137e-17
4.956543601e-17
4.986111565e-17
5.026877459e-17
5.077225652e-17
5.136079521e-17
5.202749618e-17
5.276819066e-17
5.358073145e-17
5.446436933e-17
5.541937642e-17
5.64467629e-17
5.754806099e-17
5.87251904e-17
5.998032354e-17
6.131580753e-17
6.273408095e-17
6.423761498e-17
6.58288453e-17
6.751012268e-17
6.928364903e-17
7.115141705e-17
7.311515383e-17
7.517625108e-17
7.733569824e-17
7.959401354e-17
8.195117422e-17
8.440654201e-17
8.695879725e-17
8.96058696e-17
9.234487695e-17
9.517207347e-17
9.80828051e-17
1.01071478e-16
1.041315393e-16
1.072554777e-16
1.104348425e-16
1.136602817e-16
1.169216012e-16
1.202078557e-16
1.235074386e-16
1.268082119e-16
1.300976536e-16
1.333630141e-16
1.365914878e-16
1.397703856e-16
1.428873295e-16
1.459304238e-16
1.488884449e-16
1.517509907e-16
1.545086379e-16
1.571530727e-16
1.596771905e-16
1.620751764e-16
1.643425566e-16
1.664762192e-16
1.684744065e-16
1.703366827e-16
1.720638701e-16
1.736579697e-16
1.751220581e-16
1.764601688e-16
1.776771678e-16
1.787786141e-16
1.797706215e-16
1.806597216e-16
1.814527271e-16
1.821566104e-16
1.827783811e-16
1.833249827e-16
1.838031981e-16
1.842195758e-16
1.84580361e-16
1.848914473e-16
1.851583402e-16
1.853861332e-16
1.855794967e-16
1.857426764e-16
1.858795009e-16
1.859933977e-16
1.860874135e-16
1.861642412e-16
1.862262483e-16
1.862755075e-16
1.863138285e-16
1.863427885e-16
1.863637622e-16
1.863779489e-16
1.863863979e-16
1.863900305e-16
1.863896592e-16
1.863860041e-16
1.863797056e-16
1.863713347e-16
1.863614015e-16
1.863503601e-16
1.863386132e-16
1.863265146e-16
1.863143707e-16
1.86302442e-16
1.862909438e-16
1.862800476e-16
1.862698821e-16
1.862605353e-16
1.862520569e-16
1.862444616e-16
1.862377324e-16
1.86231825e-16
1.862266727e-16
1.862221912e-16
1.862182839e-16
1.862148464e-16
1.862117722e-16
1.862089565e-16
1.862063005e-16
1.862037144e-16
1.862011205e-16
1.861984549e-16
1.861956683e-16
1.861927269e-16
1.861896117e-16
1.861863176e-16
1.861828523e-16
1.861792341e-16
1.8617549e-16
1.861716532e-16
1.861677614e-16
1.861638538e-16
1.861599699e-16
1.861561469e-16
1.861524189e-16
1.861488154e-16
1.861453604e-16
1.861420726e-16
1.861389644e-16
1.861360427e-16
1.861333091e-16
1.861307606e-16
1.861283903e-16
1.861261881e-16
1.861241416e-16
1.861222371e-16
1.861204603e-16
1.861187966e-16
1.861172322e-16
1.861157543e-16
1.861143513e-16
1.861130132e-16
1.861117314e-16
1.861104991e-16
1.861093111e-16
1.861081633e-16
1.861070532e-16
1.861059791e-16
1.861049404e-16
1.861039373e-16
1.861029705e-16
1.861020413e-16
1.861011514e-16
1.86100303e-16
1.860994983e-16
1.8609874e-16
1.86098031e-16
1.860973742e-16
1.860967727e-16
1.860962297e-16
1.860957484e-16
1.860953316e-16
1.860949822e-16
1.860947026e-16
1.860944948e-16
1.860943605e-16
1.860943004e-16
1.860943146e-16
1.860944025e-16
1.860945625e-16
1.860947924e-16
1.860950887e-16
1.860954473e-16
1.860958632e-16
1.860963306e-16
1.860968432e-16
1.860973938e-16
1.860979748e-16
1.860985786e-16
1.860991968e-16
1.860998214e-16
1.861004442e-16
1.86101057e-16
1.861016523e-16
1.861022227e-16
1.861027612e-16
1.861032616e-16
1.861037182e-16
1.861041261e-16
1.861044811e-16
1.861047797e-16
1.861050193e-16
1.861051981e-16
1.861053151e-16
1.861053698e-16
1.861053627e-16
1.861052949e-16
1.861051681e-16
1.861049845e-16
1.861047469e-16
1.861044585e-16
1.861041227e-16
1.861037434e-16
1.861033245e-16
1.861028703e-16
1.86102385e-16
1.861018728e-16
1.861013382e-16
1.861007852e-16
1.861002181e-16
1.860996409e-16
1.860990575e-16
1.860984714e-16
1.860978862e-16
1.860973052e-16
1.860967313e-16
1.860961673e-16
1.860956157e-16
1.860950788e-16
1.860945585e-16
1.860940565e-16
1.860935743e-16
1.860931131e-16
1.860926738e-16
1.860922572e-16
1.86091864e-16
1.860914955e-16
1.860911548e-16
1.860908513e-16
1.860906151e-16
)
;

boundaryField
{
    inlet
    {
        type            fixedValue;
        value           uniform 0;
    }
    outlet
    {
        type            zeroGradient;
    }
    wall
    {
        type            empty;
    }
}


// ************************************************************************* //
