/*--------------------------------*- C++ -*----------------------------------*\
  =========                 |
  \\      /  F ield         | OpenFOAM: The Open Source CFD Toolbox
   \\    /   O peration     | Website:  https://openfoam.org
    \\  /    A nd           | Version:  7
     \\/     M anipulation  |
\*---------------------------------------------------------------------------*/
FoamFile
{
    version     2.0;
    format      ascii;
    class       volScalarField;
    location    "0.000558243009";
    object      HCCO;
}
// * * * * * * * * * * * * * * * * * * * * * * * * * * * * * * * * * * * * * //

dimensions      [0 0 0 0 0 0 0];

internalField   nonuniform List<scalar> 
1500
(
6.319268931e-34
2.176928883e-33
3.738219389e-33
4.684610862e-33
5.103824971e-33
5.2611195e-33
5.316456318e-33
5.335544879e-33
5.341763561e-33
5.343253121e-33
5.342914796e-33
5.341810013e-33
5.340382305e-33
5.338872039e-33
5.337437184e-33
5.336173784e-33
5.335122629e-33
5.33428255e-33
5.333628535e-33
5.33312838e-33
5.332753647e-33
5.332484064e-33
5.332306842e-33
5.332213314e-33
5.332195196e-33
5.332241971e-33
5.332339993e-33
5.332473144e-33
5.332624414e-33
5.332777734e-33
5.332919494e-33
5.333039432e-33
5.333130853e-33
5.333190325e-33
5.333217066e-33
5.33321226e-33
5.333178428e-33
5.333118943e-33
5.333037683e-33
5.33293881e-33
5.332826605e-33
5.332705316e-33
5.332578985e-33
5.332451258e-33
5.332325206e-33
5.332203183e-33
5.332086755e-33
5.33197671e-33
5.331873145e-33
5.331775615e-33
5.331683325e-33
5.331595327e-33
5.331510703e-33
5.331428718e-33
5.331348924e-33
5.331271225e-33
5.331195895e-33
5.331123558e-33
5.33105515e-33
5.330991849e-33
5.330935009e-33
5.330886082e-33
5.330846548e-33
5.33081784e-33
5.330801276e-33
5.330797995e-33
5.330808896e-33
5.33083458e-33
5.33087531e-33
5.330930975e-33
5.331001071e-33
5.331084695e-33
5.331180556e-33
5.331287002e-33
5.331402069e-33
5.33152353e-33
5.331648969e-33
5.331775847e-33
5.331901587e-33
5.33202364e-33
5.332139564e-33
5.332247085e-33
5.332344157e-33
5.332429008e-33
5.332500176e-33
5.332556535e-33
5.332597309e-33
5.332622073e-33
5.332630749e-33
5.332623593e-33
5.332601176e-33
5.332564362e-33
5.332514275e-33
5.33245227e-33
5.332379888e-33
5.332298819e-33
5.332210853e-33
5.33211783e-33
5.332021593e-33
5.331923936e-33
5.331826553e-33
5.331730994e-33
5.331638619e-33
5.331550564e-33
5.331467708e-33
5.33139066e-33
5.331319746e-33
5.331255017e-33
5.331196266e-33
5.331143053e-33
5.331094748e-33
5.331050576e-33
5.331009669e-33
5.330971122e-33
5.330934047e-33
5.330897621e-33
5.330861134e-33
5.33082402e-33
5.330785882e-33
5.330746504e-33
5.330705852e-33
5.330664062e-33
5.33062142e-33
5.330578336e-33
5.330535312e-33
5.330492907e-33
5.330451706e-33
5.330412288e-33
5.330375205e-33
5.330340957e-33
5.330309991e-33
5.330282689e-33
5.330259375e-33
5.330240321e-33
5.33022576e-33
5.330215902e-33
5.330210944e-33
5.330211084e-33
5.330216531e-33
5.330227508e-33
5.330244251e-33
5.330267002e-33
5.330296001e-33
5.330331467e-33
5.33037358e-33
5.330422461e-33
5.330478155e-33
5.330540606e-33
5.330609645e-33
5.330684982e-33
5.330766193e-33
5.330852729e-33
5.330943916e-33
5.33103897e-33
5.331137017e-33
5.331237113e-33
5.331338269e-33
5.331439476e-33
5.331539734e-33
5.331638074e-33
5.331733576e-33
5.331825391e-33
5.331912745e-33
5.33199495e-33
5.3320714e-33
5.33214157e-33
5.332205004e-33
5.332261309e-33
5.33231014e-33
5.33235119e-33
5.332384187e-33
5.332408881e-33
5.332425051e-33
5.332432505e-33
5.332431091e-33
5.33242071e-33
5.332401335e-33
5.33237303e-33
5.332335975e-33
5.332290493e-33
5.332237074e-33
5.332176401e-33
5.332109376e-33
5.332037133e-33
5.331961052e-33
5.331882756e-33
5.331804098e-33
5.331727127e-33
5.331654037e-33
5.331587096e-33
5.331528557e-33
5.331480556e-33
5.331445012e-33
5.331423519e-33
5.33141727e-33
5.331426996e-33
5.331452953e-33
5.331494942e-33
5.331552384e-33
5.331624421e-33
5.331710042e-33
5.331808215e-33
5.331917993e-33
5.332038567e-33
5.332169263e-33
5.332309441e-33
5.332458321e-33
5.332614739e-33
5.332776865e-33
5.332941939e-33
5.333106078e-33
5.333264223e-33
5.333410286e-33
5.333537538e-33
5.333639262e-33
5.333709638e-33
5.333744813e-33
5.333744038e-33
5.333710731e-33
5.333653289e-33
5.33358548e-33
5.333526228e-33
5.333498685e-33
5.33352852e-33
5.333641462e-33
5.333860228e-33
5.334201089e-33
5.334670422e-33
5.335261663e-33
5.335953157e-33
5.336707355e-33
5.337471767e-33
5.33818196e-33
5.338766707e-33
5.339155135e-33
5.339285507e-33
5.339114944e-33
5.338629202e-33
5.337851414e-33
5.336848651e-33
5.335735301e-33
5.334672539e-33
5.333863868e-33
5.333547283e-33
5.3339855e-33
5.335453741e-33
5.33821973e-33
5.342488494e-33
5.348240915e-33
5.354763518e-33
5.357264897e-33
5.357862444e-33
5.358484943e-33
5.359123715e-33
5.359776282e-33
5.360442047e-33
5.36112101e-33
5.361813388e-33
5.362519489e-33
5.363239675e-33
5.363974338e-33
5.36472389e-33
5.365488769e-33
5.366269428e-33
5.367066349e-33
5.367880036e-33
5.368711023e-33
5.369559873e-33
5.370427182e-33
5.371313583e-33
5.372219742e-33
5.373146366e-33
5.374094202e-33
5.375064041e-33
5.376056719e-33
5.377073121e-33
5.378114181e-33
5.379180888e-33
5.380274287e-33
5.381395482e-33
5.38254564e-33
5.383725994e-33
5.384937847e-33
5.386182574e-33
5.387461626e-33
5.388776537e-33
5.390128925e-33
5.391520497e-33
5.392953052e-33
5.39442849e-33
5.395948813e-33
5.397516131e-33
5.399132666e-33
5.400800761e-33
5.402522881e-33
5.404301624e-33
5.406139722e-33
5.40804005e-33
5.410005632e-33
5.412039648e-33
5.414145441e-33
5.416326523e-33
5.418586585e-33
5.4209295e-33
5.423359337e-33
5.425880365e-33
5.428497062e-33
5.431214125e-33
5.434036477e-33
5.43696928e-33
5.44001794e-33
5.443188117e-33
5.44648574e-33
5.449917012e-33
5.453488422e-33
5.457206756e-33
5.46107911e-33
5.465112898e-33
5.469315863e-33
5.473696095e-33
5.478262035e-33
5.483022493e-33
5.487986656e-33
5.493164107e-33
5.49856483e-33
5.50419923e-33
5.510078141e-33
5.516212846e-33
5.522615083e-33
5.529297064e-33
5.536271487e-33
5.543551553e-33
5.551150976e-33
5.559084001e-33
5.567365416e-33
5.576010568e-33
5.585035378e-33
5.594456356e-33
5.604290612e-33
5.614555878e-33
5.625270514e-33
5.636453529e-33
5.648124595e-33
5.660304058e-33
5.673012957e-33
5.686273035e-33
5.700106753e-33
5.714537307e-33
5.729588639e-33
5.745285451e-33
5.76165322e-33
5.778718208e-33
5.796507477e-33
5.815048898e-33
5.834371169e-33
5.854503819e-33
5.875477223e-33
5.897322611e-33
5.92007208e-33
5.9437586e-33
5.968416026e-33
5.994079102e-33
6.020783474e-33
6.04856569e-33
6.077463211e-33
6.107514416e-33
6.138758602e-33
6.171235993e-33
6.20498774e-33
6.24005592e-33
6.276483545e-33
6.314314554e-33
6.353593816e-33
6.394367127e-33
6.436681208e-33
6.4805837e-33
6.526123158e-33
6.57334905e-33
6.622311744e-33
6.673062502e-33
6.725653472e-33
6.780137677e-33
6.836569002e-33
6.895002185e-33
6.955492799e-33
7.018097242e-33
7.082872717e-33
7.149877218e-33
7.219169512e-33
7.290809121e-33
7.364856297e-33
7.441372008e-33
7.520417913e-33
7.602056341e-33
7.686350265e-33
7.773363278e-33
7.863159574e-33
7.955803914e-33
8.051361604e-33
8.149898468e-33
8.251480822e-33
8.356175441e-33
8.464049538e-33
8.57517073e-33
8.689607012e-33
8.807426728e-33
8.928698541e-33
9.053491409e-33
9.18187455e-33
9.313917419e-33
9.449689681e-33
9.589261179e-33
9.732701914e-33
9.880082016e-33
1.003147172e-32
1.018694135e-32
1.034656127e-32
1.051040192e-32
1.067853373e-32
1.085102715e-32
1.102795261e-32
1.120938052e-32
1.139538127e-32
1.158602518e-32
1.178138254e-32
1.198152359e-32
1.218651851e-32
1.239643744e-32
1.261135047e-32
1.283132765e-32
1.305643905e-32
1.32867547e-32
1.352234467e-32
1.376327909e-32
1.400962814e-32
1.426146216e-32
1.45188516e-32
1.478186716e-32
1.505057976e-32
1.532506064e-32
1.560538143e-32
1.58916142e-32
1.618383153e-32
1.648210662e-32
1.678651335e-32
1.709712638e-32
1.741402129e-32
1.773727463e-32
1.80669641e-32
1.840316862e-32
1.87459685e-32
1.909544559e-32
1.945168338e-32
1.981476722e-32
2.018478446e-32
2.056182464e-32
2.094597963e-32
2.133734392e-32
2.173601474e-32
2.214209232e-32
2.255568011e-32
2.297688501e-32
2.340581764e-32
2.384259259e-32
2.428732867e-32
2.474014923e-32
2.520118242e-32
2.567056154e-32
2.614842533e-32
2.663491828e-32
2.713019103e-32
2.76344007e-32
2.814771125e-32
2.867029389e-32
2.920232745e-32
2.974399882e-32
3.02955034e-32
3.085704546e-32
3.142883869e-32
3.201110662e-32
3.260408316e-32
3.320801302e-32
3.382315235e-32
3.444976918e-32
3.508814404e-32
3.573857052e-32
3.640135585e-32
3.707682157e-32
3.776530408e-32
3.84671554e-32
3.918274376e-32
3.991245434e-32
4.065669002e-32
4.141587207e-32
4.219044096e-32
4.298085716e-32
4.378760195e-32
4.461117828e-32
4.545211165e-32
4.631095104e-32
4.718826982e-32
4.808466678e-32
4.900076709e-32
4.993722341e-32
5.089471694e-32
5.187395854e-32
5.287568992e-32
5.390068468e-32
5.494974912e-32
5.602372197e-32
5.712347132e-32
5.824988614e-32
5.940386643e-32
6.058635159e-32
6.179840152e-32
6.30410767e-32
6.431547699e-32
6.562296259e-32
6.696484303e-32
6.834242837e-32
6.9757067e-32
7.121015896e-32
7.270316148e-32
7.423759228e-32
7.581503101e-32
7.7437117e-32
7.910553172e-32
8.082193523e-32
8.258791532e-32
8.440556253e-32
8.627693623e-32
8.820407679e-32
9.018906459e-32
9.223416185e-32
9.434182372e-32
9.65146109e-32
9.875517074e-32
1.010662549e-31
1.034507377e-31
1.059116297e-31
1.084520899e-31
1.110754364e-31
1.137851589e-31
1.165849317e-31
1.194786282e-31
1.22470337e-31
1.255643807e-31
1.287653351e-31
1.320780532e-31
1.355076898e-31
1.390597307e-31
1.427400253e-31
1.465548227e-31
1.505108135e-31
1.546151759e-31
1.588756294e-31
1.633004938e-31
1.678987581e-31
1.726801566e-31
1.776552577e-31
1.828355623e-31
1.882336183e-31
1.93863149e-31
1.997392001e-31
2.058783075e-31
2.122986883e-31
2.190204583e-31
2.260658813e-31
2.334596524e-31
2.412292227e-31
2.494051694e-31
2.58021619e-31
2.671167316e-31
2.767332534e-31
2.869191498e-31
2.977283292e-31
3.092214703e-31
3.214669703e-31
3.345420289e-31
3.4853389e-31
3.635412631e-31
3.796759512e-31
3.970647151e-31
4.158514095e-31
4.361994303e-31
4.582945189e-31
4.823479773e-31
5.086003533e-31
5.373256666e-31
5.688362567e-31
6.034883439e-31
6.41688413e-31
6.839005414e-31
7.306548167e-31
7.825570097e-31
8.402996973e-31
9.046750605e-31
9.765896235e-31
1.057081245e-30
1.147338733e-30
1.248724515e-30
1.362800909e-30
1.491360614e-30
1.636462234e-30
1.800471799e-30
1.98611154e-30
2.196517529e-30
2.435308281e-30
2.706667181e-30
3.015442592e-30
3.367271088e-30
3.768731527e-30
4.227541129e-30
4.752810001e-30
5.355378564e-30
6.04827475e-30
6.847347021e-30
7.772159162e-30
8.8472795e-30
1.010417038e-29
1.158399884e-29
1.33418707e-29
1.545327667e-29
1.802399242e-29
2.12053926e-29
2.521828041e-29
3.039014928e-29
3.721368634e-29
4.643894548e-29
5.921900313e-29
7.734074138e-29
1.035913949e-28
1.423420461e-28
2.004784951e-28
2.888894955e-28
4.248512113e-28
6.358559628e-28
9.657736783e-28
1.484788981e-27
2.305461923e-27
3.608752045e-27
5.686432381e-27
9.011744238e-27
1.434734528e-26
2.292395261e-26
3.683927564e-26
5.936300335e-26
9.601601322e-26
1.559084611e-25
2.543238854e-25
4.163230004e-25
6.845092405e-25
1.130830632e-24
1.877797477e-24
3.135543647e-24
5.267253012e-24
8.905719285e-24
1.51629606e-23
2.601091609e-23
4.49800835e-23
7.845576705e-23
1.381111684e-22
2.455306236e-22
4.41110477e-22
8.014408423e-22
1.47378141e-21
2.745640798e-21
5.187998563e-21
9.956841252e-21
1.944460821e-20
3.8729182e-20
7.890150096e-20
1.649694607e-19
3.552779663e-19
7.907829816e-19
1.823713487e-18
4.36165127e-18
1.080459476e-17
2.762785198e-17
7.254277823e-17
1.943438647e-16
5.275951672e-16
1.441674363e-15
3.940813438e-15
1.071765223e-14
2.88676462e-14
7.671444867e-14
2.005287549e-13
5.14367025e-13
1.29232877e-12
3.176060168e-12
7.628114957e-12
1.789455803e-11
4.098758487e-11
9.16468371e-11
2.000255182e-10
4.26191989e-10
8.866195205e-10
1.801718006e-09
3.575880707e-09
6.941222777e-09
1.317571876e-08
2.446613344e-08
4.427231676e-08
7.833271527e-08
1.355384448e-07
2.293587447e-07
3.796368559e-07
6.149524958e-07
9.760198647e-07
1.520028333e-06
2.325603613e-06
3.501435453e-06
5.19175e-06
7.605001746e-06
1.092635993e-05
1.545093626e-05
2.14809613e-05
2.940080532e-05
3.940221823e-05
5.178896417e-05
6.669905707e-05
8.419774437e-05
0.0001038346659
0.0001250856165
0.0001470164772
0.0001684070877
0.0001878646434
0.0002040314097
0.0002158491946
0.000222571514
0.0002240913767
0.0002207205069
0.0002131389204
0.0002022253625
0.0001889191576
0.0001741198172
0.0001585073439
0.0001427407189
0.0001273959566
0.0001128354698
9.928859126e-05
8.688330624e-05
7.566787606e-05
6.56342788e-05
5.673502286e-05
4.889904451e-05
4.21177358e-05
3.620793421e-05
3.104055088e-05
2.657880653e-05
2.273668531e-05
1.943491131e-05
1.660217527e-05
1.417521269e-05
1.209973456e-05
1.032442425e-05
8.808178079e-06
7.514143901e-06
6.410414372e-06
5.469441466e-06
4.667501543e-06
3.984210818e-06
3.402090149e-06
2.906177134e-06
2.483682872e-06
2.12369015e-06
1.816889529e-06
1.55534968e-06
1.332318348e-06
1.142050483e-06
9.796602416e-07
8.409939426e-07
7.225211979e-07
6.21241811e-07
5.346062984e-07
4.604481288e-07
3.969260209e-07
3.424748556e-07
2.957639517e-07
2.556616245e-07
2.212050973e-07
1.915749705e-07
1.660735626e-07
1.441065429e-07
1.251673562e-07
1.088240165e-07
9.470790976e-08
8.25042995e-08
7.194427404e-08
6.279791665e-08
5.486851051e-08
4.798762055e-08
4.201091795e-08
3.681463379e-08
3.22925458e-08
2.835341666e-08
2.491881535e-08
2.192126299e-08
1.930265412e-08
1.701291165e-08
1.500884001e-08
1.325314696e-08
1.171360837e-08
1.036235474e-08
9.175261317e-09
8.131426233e-09
7.212723736e-09
6.403421388e-09
5.689851803e-09
5.060130943e-09
4.503916168e-09
4.012198267e-09
3.577122555e-09
3.19183483e-09
2.850348648e-09
2.547430858e-09
2.278502797e-09
2.039554947e-09
1.827073146e-09
1.637974734e-09
1.469553257e-09
1.31943054e-09
1.185515105e-09
1.065966074e-09
9.591617984e-10
8.636725769e-10
7.782369105e-10
7.017408154e-10
6.331997879e-10
5.717430663e-10
5.165998873e-10
4.670874735e-10
4.226005261e-10
3.826020259e-10
3.46615174e-10
3.142163249e-10
2.850287849e-10
2.587173659e-10
2.349835986e-10
2.135615217e-10
1.942139756e-10
1.767293373e-10
1.609186415e-10
1.466130412e-10
1.33661565e-10
1.219291357e-10
1.112948185e-10
1.01650271e-10
9.289836968e-11
8.495199448e-11
7.773294946e-11
7.1171006e-11
6.520305285e-11
5.977234101e-11
5.48278122e-11
5.032350152e-11
4.621800551e-11
4.247400828e-11
3.90578591e-11
3.593919556e-11
3.30906072e-11
3.048733514e-11
2.810700357e-11
2.592937969e-11
2.393615889e-11
2.211077243e-11
2.043821517e-11
1.890489114e-11
1.749847505e-11
1.620778798e-11
1.502268587e-11
1.393395921e-11
1.293324298e-11
1.201293561e-11
1.116612607e-11
1.038652823e-11
9.668421759e-12
9.006598804e-12
8.396315974e-12
7.83325099e-12
7.313463564e-12
6.833360076e-12
6.389661658e-12
5.979375344e-12
5.599767984e-12
5.248342635e-12
4.9228172e-12
4.621105076e-12
4.341297623e-12
4.081648273e-12
3.840558122e-12
3.616562856e-12
3.408320883e-12
3.21460256e-12
3.034280406e-12
2.866320205e-12
2.709772919e-12
2.563767335e-12
2.427503368e-12
2.300245968e-12
2.181319574e-12
2.070103058e-12
1.966025117e-12
1.868560072e-12
1.77722404e-12
1.691571437e-12
1.611191784e-12
1.535706798e-12
1.46476773e-12
1.398052932e-12
1.335265632e-12
1.276131907e-12
1.220398819e-12
1.167832714e-12
1.118217667e-12
1.071354053e-12
1.027057242e-12
9.85156404e-13
9.454934071e-13
9.079218155e-13
8.723059653e-13
8.385201179e-13
8.064476836e-13
7.759805077e-13
7.470182157e-13
7.194676118e-13
6.932421253e-13
6.682613028e-13
6.444503406e-13
6.21739655e-13
6.000644864e-13
5.793645359e-13
5.595836298e-13
5.406694111e-13
5.225730554e-13
5.052490089e-13
4.88654747e-13
4.72750552e-13
4.574993077e-13
4.428663098e-13
4.288190919e-13
4.153272637e-13
4.023623621e-13
3.898977142e-13
3.779083098e-13
3.663706841e-13
3.552628094e-13
3.445639946e-13
3.342547923e-13
3.243169133e-13
3.147331466e-13
3.054872862e-13
2.965640631e-13
2.879490816e-13
2.796287613e-13
2.715902829e-13
2.638215376e-13
2.563110808e-13
2.490480884e-13
2.420223171e-13
2.352240671e-13
2.28644147e-13
2.22273842e-13
2.161048841e-13
2.101294237e-13
2.043400045e-13
1.987295389e-13
1.932912856e-13
1.880188293e-13
1.829060604e-13
1.779471577e-13
1.731365709e-13
1.684690052e-13
1.639394066e-13
1.59542948e-13
1.552750166e-13
1.511312017e-13
1.471072837e-13
1.431992237e-13
1.394031534e-13
1.357153662e-13
1.321323087e-13
1.286505725e-13
1.252668867e-13
1.219781107e-13
1.18781228e-13
1.156733395e-13
1.126516581e-13
1.097135026e-13
1.068562935e-13
1.04077547e-13
1.013748714e-13
9.874596227e-14
9.618859863e-14
9.3700639e-14
9.128001782e-14
8.892474215e-14
8.663288836e-14
8.440259913e-14
8.22320806e-14
8.011959963e-14
7.806348127e-14
7.606210629e-14
7.411390894e-14
7.22173747e-14
7.037103829e-14
6.85734816e-14
6.682333192e-14
6.511926015e-14
6.345997906e-14
6.184424176e-14
6.027084012e-14
5.873860336e-14
5.724639665e-14
5.579311977e-14
5.437770591e-14
5.299912038e-14
5.165635954e-14
5.03484497e-14
4.907444603e-14
4.783343158e-14
4.662451633e-14
4.544683626e-14
4.42995525e-14
4.318185043e-14
4.209293895e-14
4.103204963e-14
3.999843603e-14
3.899137295e-14
3.801015575e-14
3.705409971e-14
3.612253937e-14
3.521482795e-14
3.433033674e-14
3.346845458e-14
3.262858724e-14
3.181015698e-14
3.101260198e-14
3.023537592e-14
2.947794746e-14
2.873979982e-14
2.802043031e-14
2.731934996e-14
2.663608306e-14
2.597016682e-14
2.532115094e-14
2.468859731e-14
2.407207959e-14
2.34711829e-14
2.288550351e-14
2.231464847e-14
2.175823534e-14
2.121589188e-14
2.068725576e-14
2.017197429e-14
1.966970412e-14
1.918011101e-14
1.870286955e-14
1.823766294e-14
1.778418272e-14
1.734212856e-14
1.691120802e-14
1.649113636e-14
1.608163628e-14
1.568243778e-14
1.529327789e-14
1.491390053e-14
1.454405631e-14
1.418350233e-14
1.383200203e-14
1.348932499e-14
1.315524679e-14
1.282954884e-14
1.25120182e-14
1.220244748e-14
1.190063463e-14
1.160638285e-14
1.131950042e-14
1.103980055e-14
1.076710131e-14
1.050122542e-14
1.02420002e-14
9.989257394e-15
9.74283308e-15
9.502567553e-15
9.268305204e-15
9.039894424e-15
8.817187491e-15
8.60004047e-15
8.388313112e-15
8.18186876e-15
7.980574252e-15
7.784299829e-15
7.592919055e-15
7.406308712e-15
7.224348735e-15
7.046922127e-15
6.873914858e-15
6.70521582e-15
6.540716719e-15
6.38031203e-15
6.223898904e-15
6.071377119e-15
5.922648992e-15
5.777619318e-15
5.636195316e-15
5.49828656e-15
5.363804913e-15
5.232664478e-15
5.104781535e-15
4.980074483e-15
4.858463787e-15
4.739871928e-15
4.624223346e-15
4.511444396e-15
4.401463292e-15
4.294210066e-15
4.189616511e-15
4.087616149e-15
3.988144177e-15
3.891137429e-15
3.796534329e-15
3.704274864e-15
3.614300523e-15
3.526554273e-15
3.440980519e-15
3.357525067e-15
3.276135085e-15
3.196759073e-15
3.119346821e-15
3.043849388e-15
2.970219064e-15
2.898409337e-15
2.828374859e-15
2.760071428e-15
2.693455947e-15
2.628486402e-15
2.565121839e-15
2.503322326e-15
2.443048931e-15
2.384263702e-15
2.326929637e-15
2.271010663e-15
2.216471609e-15
2.163278188e-15
2.111396969e-15
2.060795359e-15
2.011441579e-15
1.963304646e-15
1.916354354e-15
1.870561251e-15
1.825896619e-15
1.782332465e-15
1.739841487e-15
1.69839707e-15
1.657973264e-15
1.618544766e-15
1.580086904e-15
1.542575624e-15
1.505987471e-15
1.470299574e-15
1.435489634e-15
1.401535907e-15
1.368417193e-15
1.33611282e-15
1.304602629e-15
1.273866964e-15
1.243886658e-15
1.214643024e-15
1.186117837e-15
1.158293326e-15
1.131152164e-15
1.104677451e-15
1.078852711e-15
1.053661878e-15
1.02908928e-15
1.00511964e-15
9.817380542e-16
9.58929992e-16
9.366812826e-16
9.149781076e-16
8.938069907e-16
8.731547907e-16
8.530086902e-16
8.333561866e-16
8.14185088e-16
7.954835053e-16
7.772398415e-16
7.594427869e-16
7.420813102e-16
7.251446517e-16
7.086223177e-16
6.925040704e-16
6.76779924e-16
6.614401373e-16
6.464752094e-16
6.318758712e-16
6.176330797e-16
6.037380123e-16
5.901820615e-16
5.769568278e-16
5.640541174e-16
5.514659319e-16
5.391844683e-16
5.272021083e-16
5.155114187e-16
5.041051426e-16
4.929761966e-16
4.821176644e-16
4.715227959e-16
4.611849974e-16
4.510978293e-16
4.412550031e-16
4.316503739e-16
4.222779379e-16
4.131318312e-16
4.04206321e-16
3.954958026e-16
3.86994798e-16
3.786979502e-16
3.706000194e-16
3.626958796e-16
3.549805168e-16
3.474490238e-16
3.400965984e-16
3.329185396e-16
3.259102428e-16
3.190672015e-16
3.123850011e-16
3.058593194e-16
2.99485924e-16
2.932606689e-16
2.87179496e-16
2.812384342e-16
2.754335965e-16
2.697611829e-16
2.642174801e-16
2.587988636e-16
2.53501799e-16
2.483228428e-16
2.432586491e-16
2.383059707e-16
2.334616659e-16
2.287227036e-16
2.240861701e-16
2.195492819e-16
2.151093999e-16
2.107640475e-16
2.065109487e-16
1.726315281e-16
1.354734307e-16
1.094766002e-16
9.1119848e-17
7.811665819e-17
6.890927888e-17
6.240938928e-17
5.784800484e-17
5.46788542e-17
5.251296774e-17
5.107326529e-17
5.016265305e-17
4.96409799e-17
4.940896855e-17
4.939654323e-17
4.955441856e-17
4.984818081e-17
5.025409334e-17
5.075595207e-17
5.134296531e-17
5.200821346e-17
5.274750982e-17
5.355869506e-17
5.444101216e-17
5.53947187e-17
5.642081852e-17
5.752083607e-17
5.869668266e-17
5.995052347e-17
6.128469819e-17
6.270163887e-17
6.420381117e-17
6.579364536e-17
6.747348788e-17
6.924553847e-17
7.111178768e-17
7.307396258e-17
7.51334568e-17
7.729126333e-17
7.954790587e-17
8.190336962e-17
8.435702563e-17
8.690756635e-17
8.955293554e-17
9.229026663e-17
9.511583173e-17
9.802499584e-17
1.010121866e-16
1.040708704e-16
1.071935594e-16
1.103718239e-16
1.135963324e-16
1.168569113e-16
1.201426332e-16
1.234419077e-16
1.26742611e-16
1.3003223e-16
1.33298022e-16
1.365271847e-16
1.397070278e-16
1.428251692e-16
1.458697036e-16
1.488293952e-16
1.516938254e-16
1.544535521e-16
1.571002389e-16
1.596267573e-16
1.620272664e-16
1.642972654e-16
1.66433615e-16
1.684345301e-16
1.702995481e-16
1.720294658e-16
1.736262601e-16
1.750929856e-16
1.764336558e-16
1.776531194e-16
1.787569211e-16
1.797511623e-16
1.806423655e-16
1.814373371e-16
1.821430453e-16
1.827664982e-16
1.833146397e-16
1.837942551e-16
1.842118972e-16
1.845738169e-16
1.848859145e-16
1.851537029e-16
1.853822841e-16
1.855763369e-16
1.857401158e-16
1.858774584e-16
1.859918003e-16
1.860861969e-16
1.861633486e-16
1.862256301e-16
1.862751208e-16
1.863136364e-16
1.863427594e-16
1.863638693e-16
1.863781693e-16
1.863867124e-16
1.863904229e-16
1.863901158e-16
1.863865131e-16
1.863802571e-16
1.863719202e-16
1.863620136e-16
1.863509924e-16
1.863392602e-16
1.863271712e-16
1.863150327e-16
1.863031055e-16
1.862916056e-16
1.862807047e-16
1.862705322e-16
1.862611763e-16
1.862526874e-16
1.862450802e-16
1.86238338e-16
1.862324172e-16
1.862272511e-16
1.862227557e-16
1.862188345e-16
1.862153834e-16
1.862122957e-16
1.862094668e-16
1.862067978e-16
1.862041989e-16
1.862015925e-16
1.861989143e-16
1.861961151e-16
1.861931608e-16
1.861900324e-16
1.861867247e-16
1.861832453e-16
1.861796123e-16
1.861758528e-16
1.861719999e-16
1.861680913e-16
1.861641663e-16
1.861602643e-16
1.861564226e-16
1.861526754e-16
1.861490523e-16
1.861455774e-16
1.861422695e-16
1.861391411e-16
1.861361992e-16
1.861334456e-16
1.861308774e-16
1.861284876e-16
1.861262662e-16
1.861242011e-16
1.861222785e-16
1.861204841e-16
1.861188035e-16
1.861172229e-16
1.861157294e-16
1.861143115e-16
1.861129592e-16
1.86111664e-16
1.861104191e-16
1.861092192e-16
1.861080603e-16
1.861069398e-16
1.861058562e-16
1.861048087e-16
1.861037975e-16
1.861028234e-16
1.861018877e-16
1.86100992e-16
1.861001384e-16
1.860993292e-16
1.86098567e-16
1.860978546e-16
1.860971949e-16
1.86096591e-16
1.86096046e-16
1.860955629e-16
1.860951447e-16
1.86094794e-16
1.860945133e-16
1.860943044e-16
1.86094169e-16
1.860941076e-16
1.860941205e-16
1.860942069e-16
1.860943651e-16
1.860945929e-16
1.860948867e-16
1.860952425e-16
1.860956552e-16
1.86096119e-16
1.860966275e-16
1.860971735e-16
1.860977496e-16
1.860983479e-16
1.860989603e-16
1.860995786e-16
1.861001947e-16
1.861008008e-16
1.861013889e-16
1.86101952e-16
1.861024831e-16
1.861029762e-16
1.861034255e-16
1.861038262e-16
1.861041744e-16
1.861044665e-16
1.861047002e-16
1.861048737e-16
1.861049859e-16
1.861050368e-16
1.861050269e-16
1.861049572e-16
1.861048297e-16
1.861046466e-16
1.861044107e-16
1.861041253e-16
1.86103794e-16
1.861034205e-16
1.86103009e-16
1.861025636e-16
1.861020886e-16
1.861015883e-16
1.861010669e-16
1.861005286e-16
1.860999776e-16
1.860994178e-16
1.86098853e-16
1.860982867e-16
1.860977224e-16
1.860971632e-16
1.86096612e-16
1.860960715e-16
1.860955439e-16
1.860950316e-16
1.860945362e-16
1.860940593e-16
1.860936023e-16
1.860931662e-16
1.860927517e-16
1.860923596e-16
1.860919904e-16
1.860916452e-16
1.86091327e-16
1.860910451e-16
1.860908294e-16
)
;

boundaryField
{
    inlet
    {
        type            fixedValue;
        value           uniform 0;
    }
    outlet
    {
        type            zeroGradient;
    }
    wall
    {
        type            empty;
    }
}


// ************************************************************************* //
