/*--------------------------------*- C++ -*----------------------------------*\
  =========                 |
  \\      /  F ield         | OpenFOAM: The Open Source CFD Toolbox
   \\    /   O peration     | Website:  https://openfoam.org
    \\  /    A nd           | Version:  7
     \\/     M anipulation  |
\*---------------------------------------------------------------------------*/
FoamFile
{
    version     2.0;
    format      ascii;
    class       volScalarField;
    location    "0.000558243009";
    object      HCO;
}
// * * * * * * * * * * * * * * * * * * * * * * * * * * * * * * * * * * * * * //

dimensions      [0 0 0 0 0 0 0];

internalField   nonuniform List<scalar> 
1500
(
7.232240081e-28
6.597793609e-28
5.782547628e-28
5.049783739e-28
4.541941392e-28
4.243326779e-28
4.08795818e-28
4.015344166e-28
3.984627591e-28
3.972683934e-28
3.968203466e-28
3.966352414e-28
3.965328328e-28
3.964558135e-28
3.963901297e-28
3.963340354e-28
3.962877523e-28
3.962508412e-28
3.962221096e-28
3.962001184e-28
3.961836106e-28
3.961716931e-28
3.961638042e-28
3.961595652e-28
3.961586148e-28
3.961604941e-28
3.961646065e-28
3.961702466e-28
3.961766698e-28
3.961831729e-28
3.961891606e-28
3.961941852e-28
3.961979559e-28
3.962003253e-28
3.962012624e-28
3.962008226e-28
3.961991202e-28
3.961963064e-28
3.961925547e-28
3.961880508e-28
3.961829855e-28
3.961775478e-28
3.961719173e-28
3.961662561e-28
3.961607001e-28
3.961553536e-28
3.961502854e-28
3.961455294e-28
3.961410888e-28
3.961369422e-28
3.961330521e-28
3.961293742e-28
3.961258645e-28
3.961224872e-28
3.961192188e-28
3.961160508e-28
3.961129912e-28
3.961100635e-28
3.961073048e-28
3.961047631e-28
3.961024945e-28
3.961005597e-28
3.96099021e-28
3.96097939e-28
3.960973698e-28
3.960973619e-28
3.960979539e-28
3.960991716e-28
3.961010264e-28
3.961035138e-28
3.961066122e-28
3.961102829e-28
3.961144701e-28
3.961191027e-28
3.961240958e-28
3.961293531e-28
3.9613477e-28
3.961402364e-28
3.961456406e-28
3.961508719e-28
3.961558244e-28
3.961603993e-28
3.961645079e-28
3.961680732e-28
3.961710321e-28
3.961733359e-28
3.961749514e-28
3.961758609e-28
3.961760617e-28
3.961755662e-28
3.961744003e-28
3.961726033e-28
3.961702255e-28
3.961673279e-28
3.961639794e-28
3.961602556e-28
3.961562366e-28
3.961520046e-28
3.961476421e-28
3.961432292e-28
3.961388415e-28
3.961345484e-28
3.961304107e-28
3.96126479e-28
3.961227928e-28
3.961193793e-28
3.961162531e-28
3.961134165e-28
3.961108604e-28
3.961085651e-28
3.961065025e-28
3.961046379e-28
3.961029324e-28
3.961013453e-28
3.960998366e-28
3.960983689e-28
3.9609691e-28
3.960954336e-28
3.960939211e-28
3.960923617e-28
3.960907525e-28
3.96089098e-28
3.960874097e-28
3.96085704e-28
3.960840017e-28
3.960823261e-28
3.960807015e-28
3.960791522e-28
3.960777011e-28
3.960763693e-28
3.960751752e-28
3.960741346e-28
3.960732609e-28
3.960725653e-28
3.960720574e-28
3.960717457e-28
3.960716386e-28
3.960717444e-28
3.960720721e-28
3.960726314e-28
3.960734329e-28
3.960744873e-28
3.960758056e-28
3.960773977e-28
3.960792722e-28
3.96081435e-28
3.960838889e-28
3.960866321e-28
3.960896582e-28
3.960929551e-28
3.960965053e-28
3.961002854e-28
3.961042665e-28
3.96108415e-28
3.961126931e-28
3.961170599e-28
3.961214723e-28
3.961258862e-28
3.96130258e-28
3.961345449e-28
3.961387064e-28
3.96142705e-28
3.961465062e-28
3.961500795e-28
3.961533977e-28
3.961564371e-28
3.961591772e-28
3.961616001e-28
3.961636903e-28
3.961654338e-28
3.961668183e-28
3.961678326e-28
3.961684668e-28
3.961687124e-28
3.96168563e-28
3.961680141e-28
3.96167065e-28
3.961657186e-28
3.961639833e-28
3.961618736e-28
3.961594114e-28
3.961566274e-28
3.961535614e-28
3.961502638e-28
3.961467959e-28
3.961432296e-28
3.961396469e-28
3.961361384e-28
3.961328015e-28
3.961297364e-28
3.96127043e-28
3.96124816e-28
3.961231404e-28
3.961220869e-28
3.961217087e-28
3.961220383e-28
3.961230873e-28
3.961248475e-28
3.961272936e-28
3.961303881e-28
3.961340871e-28
3.961383453e-28
3.961431217e-28
3.961483811e-28
3.961540943e-28
3.961602335e-28
3.961667645e-28
3.961736359e-28
3.961807664e-28
3.961880332e-28
3.961952638e-28
3.962022331e-28
3.962086705e-28
3.96214277e-28
3.962187544e-28
3.962218447e-28
3.962233774e-28
3.962233201e-28
3.962218257e-28
3.962192682e-28
3.962162596e-28
3.962136406e-28
3.962124386e-28
3.962137916e-28
3.962188389e-28
3.962285843e-28
3.962437437e-28
3.962645924e-28
3.9629083e-28
3.963214862e-28
3.96354886e-28
3.963886934e-28
3.96420046e-28
3.964457846e-28
3.964627711e-28
3.964682785e-28
3.964604215e-28
3.964385886e-28
3.964038266e-28
3.963591228e-28
3.963095359e-28
3.962621272e-28
3.962256687e-28
3.962101219e-28
3.962259456e-28
3.962833109e-28
3.963913291e-28
3.965567247e-28
3.9677918e-28
3.970320732e-28
3.971193232e-28
3.971421808e-28
3.971651902e-28
3.971885356e-28
3.972122431e-28
3.97236315e-28
3.972607521e-28
3.972855569e-28
3.973107334e-28
3.973362866e-28
3.973622215e-28
3.973885437e-28
3.974152586e-28
3.974423721e-28
3.9746989e-28
3.974978186e-28
3.975261644e-28
3.975549346e-28
3.975841366e-28
3.976137782e-28
3.976438679e-28
3.976744146e-28
3.977054279e-28
3.977369179e-28
3.977688953e-28
3.978013716e-28
3.97834359e-28
3.978678704e-28
3.979019197e-28
3.979365213e-28
3.979716911e-28
3.980074455e-28
3.980438021e-28
3.980807798e-28
3.981183986e-28
3.981566797e-28
3.981956457e-28
3.982353207e-28
3.982757303e-28
3.983169018e-28
3.983588641e-28
3.984016483e-28
3.984452872e-28
3.984898157e-28
3.985352712e-28
3.985816934e-28
3.986291244e-28
3.986776094e-28
3.987271962e-28
3.987779359e-28
3.988298829e-28
3.988830953e-28
3.989376347e-28
3.98993567e-28
3.990509625e-28
3.991098959e-28
3.991704471e-28
3.992327011e-28
3.992967487e-28
3.993626868e-28
3.994306187e-28
3.995006546e-28
3.995729122e-28
3.99647517e-28
3.997246033e-28
3.998043141e-28
3.998868023e-28
3.999722312e-28
4.000607752e-28
4.001526205e-28
4.002479662e-28
4.003470249e-28
4.004500236e-28
4.005572052e-28
4.00668829e-28
4.00785172e-28
4.009065305e-28
4.01033221e-28
4.011655815e-28
4.013039735e-28
4.014487829e-28
4.016004224e-28
4.017593327e-28
4.019259844e-28
4.021008805e-28
4.02284558e-28
4.024775902e-28
4.026805895e-28
4.028942093e-28
4.031191471e-28
4.033561471e-28
4.036060031e-28
4.038695616e-28
4.041477254e-28
4.044414566e-28
4.047517802e-28
4.050797884e-28
4.054266439e-28
4.057935846e-28
4.061819277e-28
4.065930741e-28
4.070285135e-28
4.07489829e-28
4.079787026e-28
4.084969202e-28
4.090463775e-28
4.096290854e-28
4.102471765e-28
4.109029108e-28
4.115986824e-28
4.12337026e-28
4.131206238e-28
4.139523123e-28
4.1483509e-28
4.157721241e-28
4.167667586e-28
4.178225219e-28
4.189431347e-28
4.201325177e-28
4.213948006e-28
4.227343293e-28
4.241556755e-28
4.25663644e-28
4.272632823e-28
4.289598884e-28
4.307590199e-28
4.326665025e-28
4.346884383e-28
4.368312151e-28
4.391015138e-28
4.415063177e-28
4.440529202e-28
4.467489328e-28
4.496022933e-28
4.526212729e-28
4.558144837e-28
4.591908858e-28
4.627597936e-28
4.665308821e-28
4.705141928e-28
4.747201385e-28
4.791595086e-28
4.83843473e-28
4.887835853e-28
4.939917864e-28
4.994804058e-28
5.052621638e-28
5.113501717e-28
5.177579318e-28
5.244993362e-28
5.315886648e-28
5.390405828e-28
5.468701364e-28
5.55092748e-28
5.637242103e-28
5.727806794e-28
5.822786667e-28
5.922350294e-28
6.026669604e-28
6.13591977e-28
6.250279077e-28
6.369928789e-28
6.495052996e-28
6.625838451e-28
6.762474401e-28
6.905152399e-28
7.054066106e-28
7.209411089e-28
7.371384595e-28
7.540185328e-28
7.716013206e-28
7.899069115e-28
8.089554645e-28
8.28767183e-28
8.493622864e-28
8.707609823e-28
8.929834375e-28
9.160497479e-28
9.399799088e-28
9.647937838e-28
9.905110742e-28
1.017151287e-27
1.044733706e-27
1.073277355e-27
1.102800971e-27
1.133322973e-27
1.164861427e-27
1.197434017e-27
1.231058018e-27
1.265750262e-27
1.301527111e-27
1.338404427e-27
1.376397549e-27
1.415521264e-27
1.455789782e-27
1.497216715e-27
1.539815052e-27
1.583597143e-27
1.628574675e-27
1.674758662e-27
1.722159423e-27
1.770786578e-27
1.820649029e-27
1.871754958e-27
1.924111822e-27
1.977726345e-27
2.032604524e-27
2.088751628e-27
2.146172205e-27
2.204870091e-27
2.264848422e-27
2.326109648e-27
2.388655553e-27
2.452487278e-27
2.517605343e-27
2.584009681e-27
2.651699667e-27
2.720674157e-27
2.790931529e-27
2.862469727e-27
2.935286309e-27
3.009378503e-27
3.084743262e-27
3.161377329e-27
3.2392773e-27
3.318439695e-27
3.398861038e-27
3.480537933e-27
3.563467153e-27
3.647645726e-27
3.733071038e-27
3.819740925e-27
3.907653785e-27
3.99680869e-27
4.0872055e-27
4.17884499e-27
4.271728974e-27
4.365860447e-27
4.461243721e-27
4.557884573e-27
4.655790403e-27
4.754970393e-27
4.855435672e-27
4.957199496e-27
5.060277427e-27
5.164687524e-27
5.270450538e-27
5.377590123e-27
5.486133041e-27
5.596109391e-27
5.707552835e-27
5.82050084e-27
5.934994921e-27
6.051080905e-27
6.168809191e-27
6.288235035e-27
6.409418825e-27
6.532426387e-27
6.657329274e-27
6.784205035e-27
6.913137305e-27
7.044215306e-27
7.177532198e-27
7.31318582e-27
7.451294541e-27
7.59197804e-27
7.735361399e-27
7.881601381e-27
8.030852605e-27
8.183275592e-27
8.33904049e-27
8.498328117e-27
8.661330619e-27
8.828252039e-27
8.999308767e-27
9.174729874e-27
9.354756609e-27
9.539636717e-27
9.729614716e-27
9.924995198e-27
1.012608477e-26
1.033319729e-26
1.054665674e-26
1.076681568e-26
1.09940552e-26
1.122877368e-26
1.14713873e-26
1.172233285e-26
1.19820698e-26
1.225108175e-26
1.252987795e-26
1.281899484e-26
1.311899782e-26
1.343048327e-26
1.375408098e-26
1.409045697e-26
1.444031692e-26
1.480441046e-26
1.518353629e-26
1.557854883e-26
1.599036648e-26
1.641998228e-26
1.686847762e-26
1.733704004e-26
1.782698651e-26
1.833979394e-26
1.887713942e-26
1.944095344e-26
2.003349039e-26
2.06574224e-26
2.131596414e-26
2.201303942e-26
2.275350364e-26
2.354344121e-26
2.439056351e-26
2.530474188e-26
2.62987218e-26
2.738908027e-26
2.85975099e-26
2.99525416e-26
3.149185656e-26
3.326538956e-26
3.533949549e-26
3.780254412e-26
4.077243383e-26
4.440668353e-26
4.891598866e-26
5.458243195e-26
6.178394849e-26
7.102719527e-26
8.299171398e-26
9.858926956e-26
1.190435818e-25
1.45997461e-25
1.816567699e-25
2.289838733e-25
2.919575901e-25
3.759225138e-25
4.880584293e-25
6.380111173e-25
8.387400398e-25
1.107657474e-24
1.468159305e-24
1.951682146e-24
2.600467751e-24
3.471277898e-24
4.640386572e-24
6.210288597e-24
8.318714901e-24
1.115074752e-23
1.495510015e-23
2.006599658e-23
2.693257176e-23
3.615838245e-23
4.855450356e-23
6.521088247e-23
8.759223004e-23
1.176668873e-22
1.580800096e-22
2.123863127e-22
2.853628703e-22
3.834295059e-22
5.152138001e-22
6.923104848e-22
9.303021326e-22
1.250131102e-21
1.679943694e-21
2.257569186e-21
3.033852472e-21
4.077134565e-21
5.479276729e-21
7.363760766e-21
9.896582039e-21
1.330089969e-20
1.787674241e-20
2.402751819e-20
3.229568283e-20
4.341074034e-20
5.835385167e-20
7.844481845e-20
1.054592205e-19
1.417862058e-19
1.906411102e-19
2.563520636e-19
3.447464845e-19
4.636725153e-19
6.237028679e-19
8.39085432e-19
1.129027978e-18
1.519435601e-18
2.0452623e-18
2.753696565e-18
3.70848101e-18
4.995777586e-18
6.73215293e-18
9.075525536e-18
1.22403772e-17
1.651896703e-17
2.231027857e-17
3.01591098e-17
4.080968224e-17
5.527995961e-17
7.496452261e-17
1.017765854e-16
1.383440246e-16
1.882804798e-16
2.565615274e-16
3.50048918e-16
4.782247259e-16
6.542244263e-16
8.962971392e-16
1.229878095e-15
1.690541378e-15
2.32822283e-15
3.21328292e-15
4.445245225e-15
6.165440993e-15
8.575376055e-15
1.196350876e-14
1.674442733e-14
2.351635385e-14
3.314579682e-14
4.689249733e-14
6.65942748e-14
9.494104011e-14
1.35881716e-13
1.95229534e-13
2.815639232e-13
4.075767387e-13
5.920856374e-13
8.630507505e-13
1.262100061e-12
1.851317646e-12
2.72341308e-12
4.016944961e-12
5.939197404e-12
8.800960204e-12
1.307029767e-11
1.945696677e-11
2.904751597e-11
4.352834377e-11
6.556510441e-11
9.946056744e-11
1.523133002e-10
2.360806958e-10
3.712473675e-10
5.932517988e-10
9.633744635e-10
1.587274162e-09
2.642059112e-09
4.427222784e-09
7.423377648e-09
1.239320538e-08
2.039213966e-08
3.284955791e-08
5.176730397e-08
7.942016587e-08
1.18004875e-07
1.693992345e-07
2.352161559e-07
3.173595357e-07
4.188567258e-07
5.450061661e-07
7.041629306e-07
9.105912637e-07
1.171517503e-06
1.503061923e-06
1.916279002e-06
2.424821613e-06
3.02038716e-06
3.705354238e-06
4.473802682e-06
5.332146269e-06
6.248652372e-06
7.201721402e-06
8.15751611e-06
9.076319511e-06
9.91240633e-06
1.061988306e-05
1.115980415e-05
1.149162395e-05
1.15953326e-05
1.146917348e-05
1.112833748e-05
1.060301047e-05
9.933773536e-06
9.164772089e-06
8.332110072e-06
7.476072304e-06
6.635201554e-06
5.834182136e-06
5.090429833e-06
4.413244018e-06
3.805532334e-06
3.267454561e-06
2.796480938e-06
2.386666285e-06
2.038700845e-06
1.739825735e-06
1.481563286e-06
1.262281171e-06
1.076608673e-06
9.196763835e-07
7.87191022e-07
6.754249599e-07
5.812650559e-07
5.017923677e-07
4.347609804e-07
3.781881929e-07
3.303966394e-07
2.899713846e-07
2.557219154e-07
2.266487378e-07
2.01914252e-07
1.808175516e-07
1.627727691e-07
1.472905842e-07
1.339625175e-07
1.22447651e-07
1.12461446e-07
1.037663571e-07
9.616397314e-08
8.948845658e-08
8.360107203e-08
7.838563162e-08
7.374470803e-08
6.959648809e-08
6.587216026e-08
6.25137462e-08
5.94723011e-08
5.670642019e-08
5.418099895e-08
5.186620362e-08
4.973661592e-08
4.777052205e-08
4.594932111e-08
4.425703258e-08
4.267988576e-08
4.120597715e-08
3.982498429e-08
3.852792634e-08
3.730696348e-08
3.61552287e-08
3.506668637e-08
3.403601326e-08
3.305849819e-08
3.212995723e-08
3.124666201e-08
3.040527881e-08
2.960281687e-08
2.883658434e-08
2.810415069e-08
2.74033145e-08
2.673207589e-08
2.608861278e-08
2.547126044e-08
2.487849383e-08
2.430891226e-08
2.376122612e-08
2.323424525e-08
2.272686886e-08
2.223807663e-08
2.176692098e-08
2.131252013e-08
2.087405214e-08
2.045074947e-08
2.004189429e-08
1.964681419e-08
1.92648784e-08
1.889549446e-08
1.853810511e-08
1.819218563e-08
1.78572413e-08
1.753280524e-08
1.721843635e-08
1.69137175e-08
1.661825385e-08
1.633167134e-08
1.605361529e-08
1.578374913e-08
1.552175323e-08
1.526732384e-08
1.502017208e-08
1.478002306e-08
1.454661499e-08
1.431969845e-08
1.409903565e-08
1.388439974e-08
1.367557421e-08
1.347235233e-08
1.327453656e-08
1.308193809e-08
1.289437634e-08
1.271167854e-08
1.253367933e-08
1.236022035e-08
1.21911499e-08
1.202632257e-08
1.186559896e-08
1.170884538e-08
1.155593354e-08
1.140674029e-08
1.126114741e-08
1.111904133e-08
1.098031293e-08
1.084485733e-08
1.071257369e-08
1.058336502e-08
1.0457138e-08
1.033380286e-08
1.021327313e-08
1.009546557e-08
9.980300014e-09
9.867699195e-09
9.757588663e-09
9.649896642e-09
9.544553919e-09
9.441493737e-09
9.340651688e-09
9.241965619e-09
9.145375531e-09
9.050823497e-09
8.958253574e-09
8.867611721e-09
8.778845724e-09
8.69190512e-09
8.60674113e-09
8.523306592e-09
8.441555894e-09
8.361444916e-09
8.282930972e-09
8.205972754e-09
8.130530277e-09
8.056564834e-09
7.984038942e-09
7.912916297e-09
7.843161733e-09
7.774741177e-09
7.707621608e-09
7.641771019e-09
7.577158383e-09
7.513753611e-09
7.451527525e-09
7.390451821e-09
7.330499037e-09
7.271642527e-09
7.213856431e-09
7.157115644e-09
7.101395795e-09
7.046673217e-09
6.992924925e-09
6.940128592e-09
6.888262528e-09
6.837305656e-09
6.787237492e-09
6.738038126e-09
6.689688203e-09
6.642168904e-09
6.595461927e-09
6.549549471e-09
6.504414223e-09
6.460039336e-09
6.416408418e-09
6.373505517e-09
6.331315104e-09
6.289822066e-09
6.249011685e-09
6.20886963e-09
6.169381946e-09
6.130535038e-09
6.092315663e-09
6.054710919e-09
6.017708234e-09
5.981295355e-09
5.945460339e-09
5.910191545e-09
5.875477622e-09
5.841307502e-09
5.807670394e-09
5.774555771e-09
5.741953364e-09
5.709853158e-09
5.678245377e-09
5.647120486e-09
5.616469176e-09
5.586282363e-09
5.55655118e-09
5.527266969e-09
5.498421277e-09
5.470005849e-09
5.442012624e-09
5.414433729e-09
5.387261472e-09
5.360488339e-09
5.334106988e-09
5.308110245e-09
5.282491101e-09
5.257242701e-09
5.23235835e-09
5.207831498e-09
5.183655744e-09
5.159824828e-09
5.136332631e-09
5.113173164e-09
5.090340573e-09
5.067829131e-09
5.045633234e-09
5.023747401e-09
5.002166266e-09
4.980884582e-09
4.95989721e-09
4.939199122e-09
4.918785397e-09
4.898651217e-09
4.878791862e-09
4.859202716e-09
4.839879254e-09
4.820817048e-09
4.802011758e-09
4.783459135e-09
4.765155018e-09
4.747095326e-09
4.729276066e-09
4.711693322e-09
4.694343257e-09
4.677222112e-09
4.660326201e-09
4.643651914e-09
4.627195708e-09
4.610954112e-09
4.594923724e-09
4.579101207e-09
4.563483288e-09
4.548066757e-09
4.532848469e-09
4.517825336e-09
4.50299433e-09
4.488352481e-09
4.473896874e-09
4.45962465e-09
4.445533004e-09
4.431619182e-09
4.417880483e-09
4.404314255e-09
4.390917895e-09
4.377688849e-09
4.364624609e-09
4.351722712e-09
4.338980742e-09
4.326396325e-09
4.313967129e-09
4.301690868e-09
4.289565291e-09
4.277588193e-09
4.265757405e-09
4.254070796e-09
4.242526274e-09
4.231121783e-09
4.219855304e-09
4.208724852e-09
4.197728478e-09
4.186864264e-09
4.176130328e-09
4.165524819e-09
4.155045917e-09
4.144691835e-09
4.134460814e-09
4.124351127e-09
4.114361075e-09
4.104488987e-09
4.094733221e-09
4.085092162e-09
4.075564222e-09
4.066147839e-09
4.056841477e-09
4.047643625e-09
4.038552798e-09
4.029567532e-09
4.020686392e-09
4.011907961e-09
4.003230848e-09
3.994653684e-09
3.986175121e-09
3.977793834e-09
3.969508517e-09
3.961317887e-09
3.95322068e-09
3.945215653e-09
3.937301581e-09
3.929477259e-09
3.921741501e-09
3.91409314e-09
3.906531026e-09
3.899054027e-09
3.891661029e-09
3.884350934e-09
3.877122663e-09
3.869975152e-09
3.862907352e-09
3.855918232e-09
3.849006777e-09
3.842171984e-09
3.835412868e-09
3.828728459e-09
3.822117799e-09
3.815579947e-09
3.809113974e-09
3.802718966e-09
3.796394021e-09
3.790138252e-09
3.783950784e-09
3.777830756e-09
3.771777318e-09
3.765789633e-09
3.759866877e-09
3.754008236e-09
3.74821291e-09
3.742480108e-09
3.736809053e-09
3.731198976e-09
3.725649123e-09
3.720158746e-09
3.714727113e-09
3.709353497e-09
3.704037186e-09
3.698777473e-09
3.693573667e-09
3.688425081e-09
3.68333104e-09
3.67829088e-09
3.673303944e-09
3.668369584e-09
3.663487163e-09
3.65865605e-09
3.653875626e-09
3.649145277e-09
3.6444644e-09
3.6398324e-09
3.635248688e-09
3.630712685e-09
3.626223821e-09
3.62178153e-09
3.617385257e-09
3.613034452e-09
3.608728575e-09
3.604467092e-09
3.600249475e-09
3.596075204e-09
3.591943768e-09
3.587854659e-09
3.583807378e-09
3.579801433e-09
3.575836338e-09
3.571911612e-09
3.568026782e-09
3.564181382e-09
3.56037495e-09
3.556607031e-09
3.552877176e-09
3.549184942e-09
3.545529891e-09
3.541911593e-09
3.538329621e-09
3.534783555e-09
3.531272979e-09
3.527797484e-09
3.524356666e-09
3.520950125e-09
3.517577469e-09
3.514238307e-09
3.510932256e-09
3.507658937e-09
3.504417976e-09
3.501209004e-09
3.498031656e-09
3.494885573e-09
3.491770399e-09
3.488685783e-09
3.48563138e-09
3.482606847e-09
3.479611846e-09
3.476646046e-09
3.473709116e-09
3.470800732e-09
3.467920574e-09
3.465068323e-09
3.462243669e-09
3.459446302e-09
3.456675918e-09
3.453932215e-09
3.451214896e-09
3.448523668e-09
3.445858242e-09
3.44321833e-09
3.440603652e-09
3.438013926e-09
3.435448879e-09
3.432908239e-09
3.430391735e-09
3.427899104e-09
3.425430083e-09
3.422984414e-09
3.420561841e-09
3.418162112e-09
3.415784977e-09
3.413430192e-09
3.411097511e-09
3.408786697e-09
3.406497511e-09
3.40422972e-09
3.401983092e-09
3.399757399e-09
3.397552415e-09
3.395367919e-09
3.393203689e-09
3.391059509e-09
3.388935163e-09
3.386830441e-09
3.384745131e-09
3.382679029e-09
3.380631928e-09
3.378603629e-09
3.37659393e-09
3.374602635e-09
3.372629549e-09
3.370674481e-09
3.36873724e-09
3.366817639e-09
3.364915491e-09
3.363030615e-09
3.361162829e-09
3.359311953e-09
3.357477812e-09
3.355660231e-09
3.353859036e-09
3.352074058e-09
3.350305127e-09
3.348552078e-09
3.346814744e-09
3.345092964e-09
3.343386576e-09
3.341695421e-09
3.340019341e-09
3.338358181e-09
3.336711786e-09
3.335080005e-09
3.333462687e-09
3.331859683e-09
3.330270844e-09
3.328696026e-09
3.327135084e-09
3.325587874e-09
3.324054256e-09
3.32253409e-09
3.321027236e-09
3.319533557e-09
3.318052918e-09
3.316585183e-09
3.315130218e-09
3.313687893e-09
3.312258075e-09
3.310840634e-09
3.309435442e-09
3.30804237e-09
3.306661291e-09
3.30529208e-09
3.303934612e-09
3.302588762e-09
3.301254407e-09
3.299931424e-09
3.298619693e-09
3.29731909e-09
3.296029497e-09
3.294750792e-09
3.293482856e-09
3.292225568e-09
3.290978811e-09
3.289742465e-09
3.288516411e-09
3.28730053e-09
3.286094703e-09
3.284898809e-09
3.283712729e-09
3.282536342e-09
3.281369524e-09
3.280212155e-09
3.279064108e-09
3.277925258e-09
3.276795477e-09
3.275674633e-09
3.27456259e-09
3.273459205e-09
3.272364323e-09
3.271277776e-09
3.270199358e-09
3.269128835e-09
3.268065899e-09
3.267010146e-09
3.265961021e-09
3.26491779e-09
3.256469013e-09
3.244492151e-09
3.234191692e-09
3.225572157e-09
3.218574382e-09
3.213151381e-09
3.209268124e-09
3.206899229e-09
3.206027229e-09
3.206641105e-09
3.208735082e-09
3.212307629e-09
3.217360613e-09
3.223898574e-09
3.2319281e-09
3.241457273e-09
3.252495191e-09
3.26505153e-09
3.27913615e-09
3.294758737e-09
3.311928455e-09
3.330653619e-09
3.350941369e-09
3.372797341e-09
3.396225337e-09
3.42122697e-09
3.447801306e-09
3.47594448e-09
3.505649292e-09
3.536904786e-09
3.569695815e-09
3.604002586e-09
3.639800194e-09
3.677058168e-09
3.71574e-09
3.755802713e-09
3.797196443e-09
3.839864062e-09
3.883740848e-09
3.928754238e-09
3.974823642e-09
4.021860362e-09
4.069767612e-09
4.118440665e-09
4.167767111e-09
4.21762727e-09
4.267894738e-09
4.318437071e-09
4.369116614e-09
4.419791466e-09
4.470316574e-09
4.520544925e-09
4.57032886e-09
4.619521437e-09
4.667977864e-09
4.715556961e-09
4.762122605e-09
4.807545173e-09
4.851702907e-09
4.894483201e-09
4.935783788e-09
4.975513772e-09
5.013594506e-09
5.049960306e-09
5.084558956e-09
5.117352011e-09
5.148314898e-09
5.177436796e-09
5.204720321e-09
5.230181004e-09
5.253846581e-09
5.27575613e-09
5.295959048e-09
5.314513911e-09
5.331487251e-09
5.346952248e-09
5.360987402e-09
5.37367519e-09
5.385100749e-09
5.395350601e-09
5.404511457e-09
5.412669112e-09
5.419907447e-09
5.426307564e-09
5.431947048e-09
5.436899377e-09
5.44123347e-09
5.445013377e-09
5.448298102e-09
5.45114155e-09
5.453592595e-09
5.455695234e-09
5.457488835e-09
5.459008447e-09
5.460285161e-09
5.461346497e-09
5.462216816e-09
5.462917721e-09
5.463468454e-09
5.46388626e-09
5.464186721e-09
5.464384046e-09
5.46449131e-09
5.464520658e-09
5.464483442e-09
5.464390327e-09
5.464251347e-09
5.464075929e-09
5.463872884e-09
5.463650379e-09
5.46341589e-09
5.463176154e-09
5.46293712e-09
5.4627039e-09
5.462480742e-09
5.462271014e-09
5.462077206e-09
5.461900953e-09
5.461743084e-09
5.461603682e-09
5.461482167e-09
5.461377393e-09
5.461287753e-09
5.461211291e-09
5.46114582e-09
5.46108903e-09
5.461038596e-09
5.460992276e-09
5.460947992e-09
5.460903897e-09
5.460858427e-09
5.460810338e-09
5.460758718e-09
5.460702994e-09
5.46064291e-09
5.46057851e-09
5.460510094e-09
5.460438177e-09
5.460363442e-09
5.460286685e-09
5.460208772e-09
5.460130584e-09
5.46005298e-09
5.45997676e-09
5.459902635e-09
5.459831206e-09
5.459762953e-09
5.459698224e-09
5.459637243e-09
5.45958011e-09
5.459526815e-09
5.459477257e-09
5.459431256e-09
5.459388572e-09
5.459348927e-09
5.459312021e-09
5.459277544e-09
5.459245197e-09
5.459214694e-09
5.459185776e-09
5.459158217e-09
5.459131823e-09
5.459106434e-09
5.459081924e-09
5.459058201e-09
5.459035197e-09
5.459012871e-09
5.458991203e-09
5.45897019e-09
5.458949842e-09
5.458930181e-09
5.458911238e-09
5.458893053e-09
5.458875669e-09
5.458859137e-09
5.458843512e-09
5.458828853e-09
5.458815221e-09
5.458802681e-09
5.458791296e-09
5.458781132e-09
5.458772249e-09
5.458764705e-09
5.45875855e-09
5.458753826e-09
5.458750562e-09
5.458748775e-09
5.458748467e-09
5.458749624e-09
5.458752212e-09
5.45875618e-09
5.45876146e-09
5.458767964e-09
5.458775588e-09
5.458784213e-09
5.458793705e-09
5.458803919e-09
5.458814701e-09
5.458825888e-09
5.458837316e-09
5.458848816e-09
5.458860224e-09
5.458871376e-09
5.458882117e-09
5.458892298e-09
5.458901782e-09
5.458910444e-09
5.458918172e-09
5.458924869e-09
5.458930454e-09
5.458934862e-09
5.458938044e-09
5.458939969e-09
5.458940622e-09
5.458940002e-09
5.458938125e-09
5.45893502e-09
5.458930729e-09
5.458925305e-09
5.458918812e-09
5.458911322e-09
5.458902914e-09
5.458893673e-09
5.45888369e-09
5.458873056e-09
5.458861866e-09
5.458850214e-09
5.458838196e-09
5.458825904e-09
5.458813428e-09
5.458800857e-09
5.458788275e-09
5.458775762e-09
5.458763393e-09
5.458751239e-09
5.458739364e-09
5.458727829e-09
5.458716686e-09
5.458705984e-09
5.458695763e-09
5.45868606e-09
5.458676903e-09
5.458668316e-09
5.458660317e-09
5.45865292e-09
5.458646135e-09
5.458639983e-09
5.458634521e-09
5.458629934e-09
5.458626798e-09
)
;

boundaryField
{
    inlet
    {
        type            fixedValue;
        value           uniform 0;
    }
    outlet
    {
        type            zeroGradient;
    }
    wall
    {
        type            empty;
    }
}


// ************************************************************************* //
