/*--------------------------------*- C++ -*----------------------------------*\
  =========                 |
  \\      /  F ield         | OpenFOAM: The Open Source CFD Toolbox
   \\    /   O peration     | Website:  https://openfoam.org
    \\  /    A nd           | Version:  7
     \\/     M anipulation  |
\*---------------------------------------------------------------------------*/
FoamFile
{
    version     2.0;
    format      ascii;
    class       volScalarField;
    location    "0.000558243009";
    object      HCO_0;
}
// * * * * * * * * * * * * * * * * * * * * * * * * * * * * * * * * * * * * * //

dimensions      [0 0 0 0 0 0 0];

internalField   nonuniform List<scalar> 
1500
(
7.23230603e-28
6.597410243e-28
5.781948929e-28
5.049225165e-28
4.541534748e-28
4.243074262e-28
4.087820992e-28
4.015280576e-28
3.984606847e-28
3.972687596e-28
3.968222097e-28
3.966381599e-28
3.965365975e-28
3.964602987e-28
3.963952299e-28
3.963396418e-28
3.962937473e-28
3.962570997e-28
3.962285026e-28
3.962065169e-28
3.961898891e-28
3.961777333e-28
3.961694972e-28
3.961648135e-28
3.961633342e-28
3.961646141e-28
3.961680715e-28
3.961730161e-28
3.961787181e-28
3.96184489e-28
3.961897477e-28
3.961940597e-28
3.961971467e-28
3.96198873e-28
3.961992182e-28
3.961982475e-28
3.961960836e-28
3.961928857e-28
3.961888337e-28
3.961841187e-28
3.961789356e-28
3.96173476e-28
3.961679203e-28
3.961624298e-28
3.961571378e-28
3.96152144e-28
3.961475107e-28
3.961432641e-28
3.961393974e-28
3.961358784e-28
3.961326577e-28
3.961296783e-28
3.961268834e-28
3.96124224e-28
3.961216639e-28
3.961191825e-28
3.961167765e-28
3.961144589e-28
3.961122577e-28
3.961102131e-28
3.961083748e-28
3.961067985e-28
3.961055428e-28
3.961046663e-28
3.961042245e-28
3.961042665e-28
3.961048329e-28
3.961059528e-28
3.961076416e-28
3.961099e-28
3.961127122e-28
3.961160456e-28
3.961198514e-28
3.96124065e-28
3.961286083e-28
3.961333916e-28
3.961383162e-28
3.961432781e-28
3.961481704e-28
3.961528873e-28
3.961573268e-28
3.961613938e-28
3.961650025e-28
3.96168079e-28
3.961705623e-28
3.961724063e-28
3.961735802e-28
3.961740683e-28
3.961738705e-28
3.961730015e-28
3.9617149e-28
3.961693778e-28
3.961667182e-28
3.961635748e-28
3.961600192e-28
3.961561298e-28
3.961519889e-28
3.961476809e-28
3.961432899e-28
3.961388972e-28
3.961345792e-28
3.961304054e-28
3.96126436e-28
3.961227206e-28
3.961192971e-28
3.961161902e-28
3.961134119e-28
3.961109613e-28
3.961088255e-28
3.961069809e-28
3.961053951e-28
3.961040292e-28
3.961028396e-28
3.961017812e-28
3.961008093e-28
3.960998822e-28
3.96098963e-28
3.960980213e-28
3.96097034e-28
3.960959864e-28
3.960948714e-28
3.960936898e-28
3.960924494e-28
3.960911633e-28
3.960898491e-28
3.960885273e-28
3.960872197e-28
3.960859485e-28
3.96084735e-28
3.960835989e-28
3.960825579e-28
3.960816276e-28
3.960808214e-28
3.96080151e-28
3.96079627e-28
3.960792594e-28
3.96079058e-28
3.960790333e-28
3.960791966e-28
3.9607956e-28
3.960801368e-28
3.960809407e-28
3.960819856e-28
3.960832848e-28
3.960848502e-28
3.960866913e-28
3.960888143e-28
3.960912211e-28
3.96093909e-28
3.960968694e-28
3.961000882e-28
3.961035451e-28
3.961072144e-28
3.961110648e-28
3.961150605e-28
3.96119162e-28
3.96123327e-28
3.961275116e-28
3.961316713e-28
3.961357621e-28
3.961397417e-28
3.961435698e-28
3.961472091e-28
3.961506255e-28
3.961537885e-28
3.961566709e-28
3.961592489e-28
3.961615018e-28
3.961634115e-28
3.961649626e-28
3.961661416e-28
3.961669372e-28
3.961673403e-28
3.961673437e-28
3.961669429e-28
3.961661363e-28
3.96164926e-28
3.961633182e-28
3.961613244e-28
3.961589622e-28
3.961562561e-28
3.96153239e-28
3.961499526e-28
3.961464483e-28
3.961427881e-28
3.96139044e-28
3.961352979e-28
3.961316403e-28
3.961281678e-28
3.961249806e-28
3.961221786e-28
3.961198565e-28
3.961181002e-28
3.961169815e-28
3.961165549e-28
3.961168548e-28
3.961178948e-28
3.961196688e-28
3.961221535e-28
3.961253134e-28
3.961291058e-28
3.96133487e-28
3.96138416e-28
3.961438577e-28
3.961497819e-28
3.961561589e-28
3.961629521e-28
3.961701065e-28
3.961775366e-28
3.961851148e-28
3.96192663e-28
3.961999508e-28
3.962067023e-28
3.962126139e-28
3.962173839e-28
3.962207526e-28
3.962225497e-28
3.962227453e-28
3.962214971e-28
3.962191858e-28
3.962164316e-28
3.962140837e-28
3.962131771e-28
3.962148548e-28
3.962202573e-28
3.962303838e-28
3.962459393e-28
3.962671805e-28
3.962937819e-28
3.963247424e-28
3.963583528e-28
3.963922437e-28
3.964235244e-28
3.96449017e-28
3.964655811e-28
3.964705075e-28
3.964619534e-28
3.964393765e-28
3.964039184e-28
3.963586844e-28
3.963088661e-28
3.962616632e-28
3.962259776e-28
3.962118764e-28
3.962298824e-28
3.962901728e-28
3.964017931e-28
3.96571319e-28
3.967981991e-28
3.970554572e-28
3.971445751e-28
3.97167787e-28
3.971910895e-28
3.972146992e-28
3.972386584e-28
3.972629749e-28
3.972876517e-28
3.973126919e-28
3.973380999e-28
3.973638806e-28
3.973900392e-28
3.97416581e-28
3.974435114e-28
3.974708359e-28
3.974985605e-28
3.975266911e-28
3.975552342e-28
3.975841968e-28
3.976135861e-28
3.9764341e-28
3.976736767e-28
3.97704395e-28
3.977355744e-28
3.977672248e-28
3.977993569e-28
3.978319821e-28
3.978651123e-28
3.978987605e-28
3.979329403e-28
3.979676663e-28
3.980029538e-28
3.980388195e-28
3.980752809e-28
3.981123566e-28
3.981500665e-28
3.981884319e-28
3.982274752e-28
3.982672204e-28
3.983076931e-28
3.983489205e-28
3.983909315e-28
3.98433757e-28
3.984774297e-28
3.985219848e-28
3.985674594e-28
3.986138931e-28
3.986613282e-28
3.987098097e-28
3.987593855e-28
3.988101067e-28
3.988620278e-28
3.989152067e-28
3.989697053e-28
3.990255895e-28
3.990829295e-28
3.991418002e-28
3.992022816e-28
3.992644588e-28
3.993284229e-28
3.993942707e-28
3.994621058e-28
3.995320386e-28
3.996041871e-28
3.99678677e-28
3.997556427e-28
3.998352278e-28
3.999175853e-28
4.000028791e-28
4.000912838e-28
4.001829861e-28
4.002781857e-28
4.003770955e-28
4.004799433e-28
4.005869725e-28
4.00698443e-28
4.008146328e-28
4.009358388e-28
4.010623782e-28
4.011945902e-28
4.013328371e-28
4.01477506e-28
4.016290106e-28
4.017877929e-28
4.019543248e-28
4.021291107e-28
4.02312689e-28
4.025056348e-28
4.027085621e-28
4.029221263e-28
4.031470267e-28
4.033840095e-28
4.03633871e-28
4.0389746e-28
4.041756818e-28
4.044695011e-28
4.04779946e-28
4.051081116e-28
4.054551639e-28
4.058223442e-28
4.062109734e-28
4.066224562e-28
4.070582863e-28
4.075200514e-28
4.080094378e-28
4.085282364e-28
4.090783478e-28
4.096617885e-28
4.102806965e-28
4.109373379e-28
4.11634113e-28
4.123735631e-28
4.131583773e-28
4.139913994e-28
4.148756353e-28
4.158142604e-28
4.168106268e-28
4.178682716e-28
4.189909245e-28
4.201825159e-28
4.214471851e-28
4.227892885e-28
4.242134081e-28
4.257243601e-28
4.273272033e-28
4.290272477e-28
4.308300632e-28
4.327414882e-28
4.347676382e-28
4.369149143e-28
4.391900115e-28
4.415999276e-28
4.441519707e-28
4.468537677e-28
4.497132719e-28
4.527387704e-28
4.559388918e-28
4.593226128e-28
4.628992648e-28
4.666785402e-28
4.70670498e-28
4.748855691e-28
4.793345609e-28
4.840286615e-28
4.889794432e-28
4.941988655e-28
4.996992766e-28
5.054934158e-28
5.115944133e-28
5.180157901e-28
5.247714572e-28
5.318757135e-28
5.393432426e-28
5.471891092e-28
5.554287539e-28
5.640779874e-28
5.731529833e-28
5.826702703e-28
5.926467223e-28
6.030995485e-28
6.140462819e-28
6.255047662e-28
6.37493142e-28
6.500298321e-28
6.631335249e-28
6.768231569e-28
6.911178947e-28
7.060371148e-28
7.216003827e-28
7.378274316e-28
7.547381389e-28
7.723525024e-28
7.906906153e-28
8.097726401e-28
8.296187823e-28
8.502492623e-28
8.716842873e-28
8.93944022e-28
9.170485593e-28
9.410178896e-28
9.658718707e-28
9.916301961e-28
1.018312364e-27
1.045937647e-27
1.074525058e-27
1.104093321e-27
1.134660839e-27
1.166245662e-27
1.198865459e-27
1.232537483e-27
1.267278547e-27
1.303104991e-27
1.340032656e-27
1.378076858e-27
1.417252357e-27
1.45757334e-27
1.499053391e-27
1.541705473e-27
1.585541907e-27
1.630574353e-27
1.676813795e-27
1.724270525e-27
1.772954131e-27
1.822873487e-27
1.874036746e-27
1.926451336e-27
1.980123952e-27
2.035060563e-27
2.09126641e-27
2.148746016e-27
2.20750319e-27
2.267541045e-27
2.328862007e-27
2.391467841e-27
2.455359665e-27
2.520537985e-27
2.587002718e-27
2.654753224e-27
2.723788351e-27
2.794106469e-27
2.865705518e-27
2.938583054e-27
3.012736309e-27
3.088162241e-27
3.164857604e-27
3.242819007e-27
3.322042991e-27
3.402526103e-27
3.484264975e-27
3.567256413e-27
3.651497488e-27
3.736985627e-27
3.82371872e-27
3.911695223e-27
4.000914271e-27
4.091375796e-27
4.183080651e-27
4.276030738e-27
4.370229146e-27
4.465680289e-27
4.562390056e-27
4.660365969e-27
4.759617338e-27
4.860155434e-27
4.961993662e-27
5.065147746e-27
5.169635917e-27
5.275479112e-27
5.382701179e-27
5.491329091e-27
5.601393169e-27
5.712927312e-27
5.825969237e-27
5.940560726e-27
6.056747887e-27
6.174581419e-27
6.294116891e-27
6.415415028e-27
6.538542014e-27
6.663569806e-27
6.790576474e-27
6.919646544e-27
7.050870947e-27
7.184344119e-27
7.320152114e-27
7.458434667e-27
7.59933548e-27
7.742999989e-27
7.889536792e-27
8.039082617e-27
8.191792411e-27
8.34783371e-27
8.50738564e-27
8.670639085e-27
8.837797081e-27
9.009075462e-27
9.184703898e-27
9.3649293e-27
9.550028455e-27
9.740323403e-27
9.936068764e-27
1.013755388e-26
1.03450903e-26
1.055898884e-26
1.077960577e-26
1.100733298e-26
1.124256899e-26
1.148572986e-26
1.173725328e-26
1.199760007e-26
1.226725549e-26
1.254673054e-26
1.283656352e-26
1.313732177e-26
1.344960376e-26
1.377404143e-26
1.41113031e-26
1.446209691e-26
1.482717503e-26
1.520733894e-26
1.560344601e-26
1.601641782e-26
1.644725086e-26
1.689703028e-26
1.736694778e-26
1.785832496e-26
1.837264396e-26
1.891158786e-26
1.947709407e-26
2.007142514e-26
2.069726292e-26
2.13578339e-26
2.205707641e-26
2.279986393e-26
2.359230364e-26
2.444213597e-26
2.535926965e-26
2.635649855e-26
2.745046289e-26
2.866293822e-26
3.002256481e-26
3.156716853e-26
3.334687619e-26
3.542829811e-26
3.790014458e-26
4.088076847e-26
4.45282961e-26
4.905423544e-26
5.474175683e-26
6.197025208e-26
7.124832994e-26
8.325814796e-26
9.891497764e-26
1.1944724e-25
1.465040487e-25
1.822997183e-25
2.298079453e-25
2.930227419e-25
3.773090704e-25
4.898740199e-25
6.403999697e-25
8.418954302e-25
1.111838404e-24
1.473712839e-24
1.959073311e-24
2.610319571e-24
3.484424977e-24
4.657946792e-24
6.23375904e-24
8.350100151e-24
1.119273124e-23
1.501127448e-23
2.014116873e-23
2.70331738e-23
3.629301866e-23
4.873468166e-23
6.545198998e-23
8.791483777e-23
1.18098489e-22
1.586573433e-22
2.131584571e-22
2.863953743e-22
3.848098937e-22
5.17058909e-22
6.947762422e-22
9.335965797e-22
1.254531736e-21
1.685820559e-21
2.265415593e-21
3.044325887e-21
4.091110973e-21
5.497922926e-21
7.388630444e-21
9.92974346e-21
1.334510526e-20
1.793565387e-20
2.41060055e-20
3.240022083e-20
4.354993487e-20
5.853913731e-20
7.869138349e-20
1.057872327e-19
1.422224365e-19
1.912210849e-19
2.571229102e-19
3.457707029e-19
4.650329655e-19
6.255093685e-19
8.414834881e-19
1.13221032e-18
1.52365744e-18
2.050861508e-18
2.761120402e-18
3.718321662e-18
5.008819801e-18
6.749440164e-18
9.098464984e-18
1.227091429e-17
1.655977918e-17
2.236490815e-17
3.023209025e-17
4.090678802e-17
5.54086159e-17
7.513437024e-17
1.020002333e-16
1.386380578e-16
1.886668002e-16
2.570690982e-16
3.507159842e-16
4.791015995e-16
6.553769419e-16
8.978109189e-16
1.231863681e-15
1.693140192e-15
2.331613589e-15
3.217687509e-15
4.450932056e-15
6.172721808e-15
8.584588737e-15
1.197497262e-14
1.675834658e-14
2.35326266e-14
3.316365505e-14
4.690984927e-14
6.66065303e-14
9.493904771e-14
1.358481881e-13
1.951329165e-13
2.813479631e-13
4.071428208e-13
5.912629558e-13
8.615460012e-13
1.259412652e-12
1.846596855e-12
2.715217226e-12
4.002834284e-12
5.915046528e-12
8.759821384e-12
1.300062018e-11
1.933985018e-11
2.885153331e-11
4.319788481e-11
6.499684234e-11
9.845967617e-11
1.505087141e-10
2.327592494e-10
3.650399473e-10
5.815681949e-10
9.413925826e-10
1.546622678e-09
2.56807588e-09
4.299456565e-09
7.214634493e-09
1.207653135e-08
1.992484168e-08
3.214830541e-08
5.076347709e-08
7.80528027e-08
1.162052264e-07
1.670638642e-07
2.322220124e-07
3.136268064e-07
4.142453257e-07
5.392821909e-07
6.970077394e-07
9.013917664e-07
1.160433192e-06
1.490437986e-06
1.903541862e-06
2.413009985e-06
3.012442704e-06
3.703684216e-06
4.481121981e-06
5.346437657e-06
6.277441114e-06
7.246283419e-06
8.218222484e-06
9.15273984e-06
1.000446172e-05
1.072615741e-05
1.127508983e-05
1.161315893e-05
1.172105678e-05
1.159679287e-05
1.125472882e-05
1.072519265e-05
1.004873271e-05
9.270697933e-06
8.430997085e-06
7.56666429e-06
6.716307779e-06
5.905091741e-06
5.150384681e-06
4.462949274e-06
3.846551358e-06
3.30168156e-06
2.825290405e-06
2.411482043e-06
2.058233804e-06
1.755017222e-06
1.494488254e-06
1.273260121e-06
1.085868059e-06
9.274261555e-07
7.93640597e-07
6.807781435e-07
5.856483136e-07
5.054269508e-07
4.377842679e-07
3.807133886e-07
3.325156102e-07
2.917580215e-07
2.572354194e-07
2.279365346e-07
2.030144389e-07
1.817608803e-07
1.635842166e-07
1.479905792e-07
1.345678912e-07
1.22972372e-07
1.129171866e-07
1.041629314e-07
9.650967925e-08
8.979034361e-08
8.386515147e-08
7.861704663e-08
7.394787007e-08
6.977518857e-08
6.602966259e-08
6.265286243e-08
5.959545632e-08
5.681570694e-08
5.427822354e-08
5.195292571e-08
4.98141825e-08
4.784009663e-08
4.601190891e-08
4.431350229e-08
4.273098825e-08
4.125236175e-08
3.986721279e-08
3.856648506e-08
3.734227375e-08
3.618765588e-08
3.509654759e-08
3.406358416e-08
3.308401866e-08
3.215363638e-08
3.126868244e-08
3.042580026e-08
2.962197941e-08
2.885451104e-08
2.812094994e-08
2.741908201e-08
2.674689641e-08
2.610256155e-08
2.548440447e-08
2.489089295e-08
2.432062007e-08
2.377229077e-08
2.324471015e-08
2.273677324e-08
2.224745608e-08
2.177580786e-08
2.132094397e-08
2.088203995e-08
2.045832606e-08
2.004908244e-08
1.965363495e-08
1.927135123e-08
1.89016374e-08
1.854393493e-08
1.819771794e-08
1.786249067e-08
1.75377853e-08
1.722315986e-08
1.691819645e-08
1.662249951e-08
1.633569432e-08
1.605742558e-08
1.578735618e-08
1.552516598e-08
1.527055073e-08
1.502322113e-08
1.478290187e-08
1.454933078e-08
1.432225809e-08
1.410144565e-08
1.388666632e-08
1.367770331e-08
1.347434958e-08
1.327640736e-08
1.308368757e-08
1.289600943e-08
1.271319994e-08
1.253509354e-08
1.236153168e-08
1.219236245e-08
1.20274403e-08
1.186662566e-08
1.170978467e-08
1.155678889e-08
1.140751505e-08
1.126184477e-08
1.111966437e-08
1.09808646e-08
1.084534047e-08
1.071299103e-08
1.058371917e-08
1.04574315e-08
1.033403812e-08
1.021345249e-08
1.009559128e-08
9.980374227e-09
9.867723996e-09
9.757566057e-09
9.64982856e-09
9.544442223e-09
9.441340222e-09
9.340458083e-09
9.241733591e-09
9.14510669e-09
9.050519395e-09
8.957915709e-09
8.867241538e-09
8.778444618e-09
8.691474439e-09
8.606282176e-09
8.522820621e-09
8.441044121e-09
8.360908514e-09
8.282371077e-09
8.205390462e-09
8.129926649e-09
8.055940896e-09
7.983395687e-09
7.912254685e-09
7.842482694e-09
7.77404561e-09
7.706910384e-09
7.641044983e-09
7.576418351e-09
7.513000376e-09
7.450761853e-09
7.389674454e-09
7.329710698e-09
7.270843914e-09
7.213048222e-09
7.156298496e-09
7.100570346e-09
7.045840085e-09
6.992084712e-09
6.93928188e-09
6.887409883e-09
6.836447628e-09
6.786374615e-09
6.737170919e-09
6.688817169e-09
6.641294533e-09
6.594584695e-09
6.548669842e-09
6.503532646e-09
6.45915625e-09
6.415524248e-09
6.372620676e-09
6.330429998e-09
6.288937085e-09
6.248127212e-09
6.207986037e-09
6.168499595e-09
6.129654281e-09
6.091436845e-09
6.053834375e-09
6.016834289e-09
5.980424328e-09
5.94459254e-09
5.909327275e-09
5.874617177e-09
5.840451169e-09
5.806818454e-09
5.773708497e-09
5.741111023e-09
5.70901601e-09
5.677413677e-09
5.646294481e-09
5.61564911e-09
5.585468472e-09
5.555743695e-09
5.526466115e-09
5.497627275e-09
5.469218915e-09
5.441232968e-09
5.413661556e-09
5.386496984e-09
5.359731731e-09
5.333358454e-09
5.307369973e-09
5.281759273e-09
5.256519498e-09
5.231643947e-09
5.207126067e-09
5.182959453e-09
5.159137842e-09
5.13565511e-09
5.112505266e-09
5.089682453e-09
5.067180938e-09
5.044995117e-09
5.023119503e-09
5.00154873e-09
4.980277545e-09
4.959300808e-09
4.938613488e-09
4.918210661e-09
4.898087505e-09
4.8782393e-09
4.858661425e-09
4.839349354e-09
4.820298655e-09
4.801504988e-09
4.782964099e-09
4.764671825e-09
4.746624085e-09
4.728816882e-09
4.711246297e-09
4.693908493e-09
4.676799707e-09
4.659916252e-09
4.643254515e-09
4.626810953e-09
4.610582091e-09
4.594564526e-09
4.578754918e-09
4.563149994e-09
4.547746542e-09
4.532541413e-09
4.517531519e-09
4.50271383e-09
4.488085373e-09
4.473643233e-09
4.45938455e-09
4.445306515e-09
4.431406374e-09
4.417681424e-09
4.404129011e-09
4.390746531e-09
4.377531428e-09
4.364481192e-09
4.35159336e-09
4.338865514e-09
4.326295277e-09
4.313880318e-09
4.301618347e-09
4.289507114e-09
4.27754441e-09
4.265728066e-09
4.254055951e-09
4.242525969e-09
4.231136065e-09
4.219884217e-09
4.208768439e-09
4.19778678e-09
4.186937322e-09
4.176218182e-09
4.165627505e-09
4.155163473e-09
4.144824295e-09
4.134608213e-09
4.124513497e-09
4.114538446e-09
4.10468139e-09
4.094940685e-09
4.085314714e-09
4.075801889e-09
4.066400645e-09
4.057109445e-09
4.047926779e-09
4.038851157e-09
4.029881118e-09
4.021015222e-09
4.012252053e-09
4.003590218e-09
3.995028347e-09
3.986565091e-09
3.978199122e-09
3.969929135e-09
3.961753845e-09
3.953671987e-09
3.945682315e-09
3.937783605e-09
3.92997465e-09
3.922254263e-09
3.914621275e-09
3.907074536e-09
3.899612911e-09
3.892235286e-09
3.884940562e-09
3.877727658e-09
3.870595508e-09
3.863543064e-09
3.856569292e-09
3.849673176e-09
3.842853713e-09
3.836109916e-09
3.829440812e-09
3.822845445e-09
3.81632287e-09
3.809872158e-09
3.803492394e-09
3.797182674e-09
3.790942111e-09
3.784769828e-09
3.778664961e-09
3.772626661e-09
3.766654089e-09
3.760746419e-09
3.754902837e-09
3.74912254e-09
3.743404737e-09
3.73774865e-09
3.732153509e-09
3.726618557e-09
3.721143048e-09
3.715726245e-09
3.710367421e-09
3.705065863e-09
3.699820865e-09
3.69463173e-09
3.689497773e-09
3.684418317e-09
3.679392697e-09
3.674420254e-09
3.669500339e-09
3.664632314e-09
3.659815547e-09
3.655049416e-09
3.650333308e-09
3.645666618e-09
3.641048749e-09
3.636479112e-09
3.631957126e-09
3.627482218e-09
3.623053823e-09
3.618671385e-09
3.614334352e-09
3.610042182e-09
3.60579434e-09
3.601590298e-09
3.597429534e-09
3.593311534e-09
3.589235792e-09
3.585201806e-09
3.581209083e-09
3.577257135e-09
3.573345481e-09
3.569473647e-09
3.565641164e-09
3.56184757e-09
3.558092408e-09
3.554375229e-09
3.550695589e-09
3.547053048e-09
3.543447175e-09
3.539877541e-09
3.536343725e-09
3.532845312e-09
3.52938189e-09
3.525953053e-09
3.522558403e-09
3.519197543e-09
3.515870084e-09
3.51257564e-09
3.509313833e-09
3.506084286e-09
3.502886629e-09
3.499720497e-09
3.496585529e-09
3.493481369e-09
3.490407665e-09
3.487364069e-09
3.484350239e-09
3.481365837e-09
3.478410527e-09
3.475483982e-09
3.472585873e-09
3.469715881e-09
3.466873687e-09
3.464058979e-09
3.461271445e-09
3.458510782e-09
3.455776686e-09
3.453068861e-09
3.450387011e-09
3.447730847e-09
3.445100082e-09
3.442494432e-09
3.439913617e-09
3.437357362e-09
3.434825394e-09
3.432317444e-09
3.429833245e-09
3.427372535e-09
3.424935055e-09
3.422520549e-09
3.420128765e-09
3.417759451e-09
3.415412363e-09
3.413087255e-09
3.410783889e-09
3.408502027e-09
3.406241434e-09
3.404001878e-09
3.401783131e-09
3.399584968e-09
3.397407165e-09
3.395249501e-09
3.39311176e-09
3.390993727e-09
3.388895189e-09
3.386815937e-09
3.384755764e-09
3.382714466e-09
3.380691841e-09
3.378687688e-09
3.376701812e-09
3.374734018e-09
3.372784114e-09
3.37085191e-09
3.368937218e-09
3.367039853e-09
3.365159632e-09
3.363296374e-09
3.361449902e-09
3.359620037e-09
3.357806607e-09
3.356009438e-09
3.354228361e-09
3.352463207e-09
3.35071381e-09
3.348980006e-09
3.347261633e-09
3.345558529e-09
3.343870537e-09
3.342197499e-09
3.34053926e-09
3.338895668e-09
3.33726657e-09
3.335651817e-09
3.33405126e-09
3.332464753e-09
3.33089215e-09
3.329333309e-09
3.327788087e-09
3.326256344e-09
3.32473794e-09
3.323232738e-09
3.321740601e-09
3.320261395e-09
3.318794986e-09
3.317341242e-09
3.315900031e-09
3.314471223e-09
3.313054689e-09
3.311650303e-09
3.310257936e-09
3.308877464e-09
3.307508762e-09
3.306151706e-09
3.304806173e-09
3.303472042e-09
3.302149191e-09
3.3008375e-09
3.29953685e-09
3.298247121e-09
3.296968196e-09
3.295699956e-09
3.294442283e-09
3.293195061e-09
3.291958171e-09
3.290731498e-09
3.289514922e-09
3.288308325e-09
3.287111587e-09
3.285924587e-09
3.284747202e-09
3.283579305e-09
3.282420765e-09
3.281271447e-09
3.280131208e-09
3.278999899e-09
3.277877357e-09
3.276763408e-09
3.27565786e-09
3.274560497e-09
3.273471069e-09
3.272389293e-09
3.271314807e-09
3.270247185e-09
3.269185869e-09
3.268130084e-09
3.26707879e-09
3.2585505e-09
3.246224359e-09
3.235602815e-09
3.226682921e-09
3.219404629e-09
3.213722048e-09
3.20960073e-09
3.207015737e-09
3.205949868e-09
3.206392199e-09
3.208336885e-09
3.211782165e-09
3.216729526e-09
3.223182987e-09
3.23114848e-09
3.240633319e-09
3.25164572e-09
3.264194385e-09
3.278288115e-09
3.293935466e-09
3.311144411e-09
3.329922023e-09
3.350274163e-09
3.372205159e-09
3.395717484e-09
3.420811418e-09
3.447484689e-09
3.475732101e-09
3.505545147e-09
3.536911582e-09
3.569815007e-09
3.604234413e-09
3.640143732e-09
3.677511378e-09
3.716299797e-09
3.756465026e-09
3.797956294e-09
3.840715644e-09
3.884677614e-09
3.929768986e-09
3.975908615e-09
4.023007346e-09
4.07096804e-09
4.119685718e-09
4.169047829e-09
4.218934658e-09
4.269219867e-09
4.319771187e-09
4.370451234e-09
4.42111847e-09
4.471628294e-09
4.521834222e-09
4.571589193e-09
4.620746917e-09
4.669163304e-09
4.716697903e-09
4.763215341e-09
4.808586752e-09
4.852691124e-09
4.895416579e-09
4.936661545e-09
4.976335777e-09
5.01436123e-09
5.050672761e-09
5.08521863e-09
5.117960798e-09
5.148875031e-09
5.177950769e-09
5.205190826e-09
5.23061086e-09
5.254238675e-09
5.276113356e-09
5.296284258e-09
5.314809875e-09
5.331756613e-09
5.347197505e-09
5.361210875e-09
5.373879013e-09
5.38528686e-09
5.39552074e-09
5.404667166e-09
5.412811745e-09
5.42003818e-09
5.426427408e-09
5.432056867e-09
5.436999904e-09
5.441325326e-09
5.445097089e-09
5.448374122e-09
5.451210273e-09
5.453654372e-09
5.455750388e-09
5.457537676e-09
5.459051278e-09
5.460322289e-09
5.46137824e-09
5.462243503e-09
5.4629397e-09
5.463486088e-09
5.463899927e-09
5.464196811e-09
5.464390956e-09
5.464495443e-09
5.464522412e-09
5.46448321e-09
5.464388487e-09
5.46424826e-09
5.464071932e-09
5.463868286e-09
5.463645457e-09
5.463410886e-09
5.463171277e-09
5.46293254e-09
5.462699751e-09
5.462477123e-09
5.46226799e-09
5.462074811e-09
5.461899194e-09
5.461741943e-09
5.461603122e-09
5.461482134e-09
5.461377822e-09
5.46128857e-09
5.461212419e-09
5.461147179e-09
5.461090544e-09
5.461040194e-09
5.460993892e-09
5.460949568e-09
5.460905385e-09
5.460859789e-09
5.460811544e-09
5.46075975e-09
5.460703838e-09
5.460643565e-09
5.460578978e-09
5.460510384e-09
5.460438302e-09
5.460363418e-09
5.460286532e-09
5.460208507e-09
5.460130226e-09
5.460052548e-09
5.459976271e-09
5.459902104e-09
5.459830646e-09
5.459762373e-09
5.459697634e-09
5.459636648e-09
5.459579514e-09
5.459526222e-09
5.459476666e-09
5.459430667e-09
5.459387984e-09
5.459348339e-09
5.459311431e-09
5.459276951e-09
5.459244599e-09
5.45921409e-09
5.459185167e-09
5.459157603e-09
5.459131204e-09
5.459105813e-09
5.459081305e-09
5.459057585e-09
5.45903459e-09
5.459012277e-09
5.458990627e-09
5.458969637e-09
5.458949318e-09
5.458929691e-09
5.458910787e-09
5.458892645e-09
5.458875311e-09
5.458858832e-09
5.458843264e-09
5.458828665e-09
5.458815095e-09
5.458802619e-09
5.4587913e-09
5.458781201e-09
5.458772384e-09
5.458764904e-09
5.458758811e-09
5.458754145e-09
5.458750937e-09
5.458749202e-09
5.45874894e-09
5.458750137e-09
5.458752759e-09
5.458756756e-09
5.458762056e-09
5.458768573e-09
5.458776202e-09
5.458784823e-09
5.458794304e-09
5.458804498e-09
5.45881525e-09
5.458826401e-09
5.458837784e-09
5.458849232e-09
5.45886058e-09
5.458871666e-09
5.458882335e-09
5.458892439e-09
5.458901842e-09
5.458910419e-09
5.458918059e-09
5.458924667e-09
5.458930163e-09
5.458934483e-09
5.458937579e-09
5.45893942e-09
5.458939993e-09
5.458939298e-09
5.458937352e-09
5.458934184e-09
5.458929836e-09
5.458924364e-09
5.45891783e-09
5.458910307e-09
5.458901875e-09
5.458892619e-09
5.458882629e-09
5.458871996e-09
5.458860815e-09
5.458849181e-09
5.458837188e-09
5.458824927e-09
5.45881249e-09
5.458799964e-09
5.458787432e-09
5.458774974e-09
5.458762664e-09
5.458750573e-09
5.458738765e-09
5.458727298e-09
5.458716226e-09
5.458705597e-09
5.45869545e-09
5.458685821e-09
5.458676739e-09
5.458668226e-09
5.458660301e-09
5.458652975e-09
5.458646259e-09
5.458640174e-09
5.458634775e-09
5.458630247e-09
5.45862716e-09
)
;

boundaryField
{
    inlet
    {
        type            fixedValue;
        value           uniform 0;
    }
    outlet
    {
        type            zeroGradient;
    }
    wall
    {
        type            empty;
    }
}


// ************************************************************************* //
