/*--------------------------------*- C++ -*----------------------------------*\
  =========                 |
  \\      /  F ield         | OpenFOAM: The Open Source CFD Toolbox
   \\    /   O peration     | Website:  https://openfoam.org
    \\  /    A nd           | Version:  7
     \\/     M anipulation  |
\*---------------------------------------------------------------------------*/
FoamFile
{
    version     2.0;
    format      ascii;
    class       volScalarField;
    location    "0.000558243009";
    object      HO2;
}
// * * * * * * * * * * * * * * * * * * * * * * * * * * * * * * * * * * * * * //

dimensions      [0 0 0 0 0 0 0];

internalField   nonuniform List<scalar> 
1500
(
2.567327485e-13
1.005649855e-12
2.078618951e-12
3.134333816e-12
3.934416994e-12
4.432255492e-12
4.696231656e-12
4.818320583e-12
4.868391113e-12
4.886838895e-12
4.893011904e-12
4.894905401e-12
4.895442032e-12
4.895583501e-12
4.895618393e-12
4.895626485e-12
4.895628257e-12
4.895628625e-12
4.895628697e-12
4.89562871e-12
4.895628713e-12
4.895628713e-12
4.895628713e-12
4.895628713e-12
4.895628713e-12
4.895628713e-12
4.895628713e-12
4.895628713e-12
4.895628713e-12
4.895628713e-12
4.895628713e-12
4.895628713e-12
4.895628713e-12
4.895628713e-12
4.895628713e-12
4.895628713e-12
4.895628713e-12
4.895628713e-12
4.895628713e-12
4.895628713e-12
4.895628713e-12
4.895628713e-12
4.895628712e-12
4.895628712e-12
4.895628712e-12
4.895628712e-12
4.895628712e-12
4.895628712e-12
4.895628712e-12
4.895628712e-12
4.895628712e-12
4.895628712e-12
4.895628712e-12
4.895628712e-12
4.895628712e-12
4.895628712e-12
4.895628712e-12
4.895628711e-12
4.895628711e-12
4.895628711e-12
4.895628711e-12
4.895628711e-12
4.895628711e-12
4.895628711e-12
4.895628711e-12
4.895628711e-12
4.895628711e-12
4.895628712e-12
4.895628712e-12
4.895628712e-12
4.895628712e-12
4.895628712e-12
4.895628712e-12
4.895628712e-12
4.895628712e-12
4.895628712e-12
4.895628712e-12
4.895628712e-12
4.895628712e-12
4.895628712e-12
4.895628712e-12
4.895628713e-12
4.895628713e-12
4.895628713e-12
4.895628713e-12
4.895628713e-12
4.895628713e-12
4.895628713e-12
4.895628713e-12
4.895628713e-12
4.895628713e-12
4.895628713e-12
4.895628712e-12
4.895628712e-12
4.895628712e-12
4.895628712e-12
4.895628712e-12
4.895628712e-12
4.895628712e-12
4.895628712e-12
4.895628712e-12
4.895628712e-12
4.895628712e-12
4.895628712e-12
4.895628711e-12
4.895628711e-12
4.895628711e-12
4.895628711e-12
4.895628711e-12
4.895628711e-12
4.895628711e-12
4.895628711e-12
4.895628711e-12
4.895628711e-12
4.895628711e-12
4.895628711e-12
4.895628711e-12
4.895628711e-12
4.895628711e-12
4.895628711e-12
4.895628711e-12
4.895628711e-12
4.895628711e-12
4.895628711e-12
4.895628711e-12
4.895628711e-12
4.895628711e-12
4.895628711e-12
4.895628711e-12
4.895628711e-12
4.895628711e-12
4.895628711e-12
4.895628711e-12
4.895628711e-12
4.895628711e-12
4.895628711e-12
4.895628711e-12
4.895628711e-12
4.895628711e-12
4.895628711e-12
4.895628711e-12
4.895628711e-12
4.895628711e-12
4.895628711e-12
4.895628711e-12
4.895628711e-12
4.895628711e-12
4.895628711e-12
4.895628711e-12
4.895628711e-12
4.895628712e-12
4.895628712e-12
4.895628712e-12
4.895628712e-12
4.895628712e-12
4.895628712e-12
4.895628712e-12
4.895628712e-12
4.895628712e-12
4.895628712e-12
4.895628712e-12
4.895628712e-12
4.895628712e-12
4.895628712e-12
4.895628712e-12
4.895628712e-12
4.895628713e-12
4.895628713e-12
4.895628713e-12
4.895628713e-12
4.895628713e-12
4.895628713e-12
4.895628713e-12
4.895628713e-12
4.895628713e-12
4.895628713e-12
4.895628713e-12
4.895628713e-12
4.895628713e-12
4.895628712e-12
4.895628712e-12
4.895628712e-12
4.895628712e-12
4.895628712e-12
4.895628712e-12
4.895628712e-12
4.895628712e-12
4.895628712e-12
4.895628712e-12
4.895628712e-12
4.895628712e-12
4.895628712e-12
4.895628712e-12
4.895628712e-12
4.895628712e-12
4.895628712e-12
4.895628711e-12
4.895628712e-12
4.895628712e-12
4.895628712e-12
4.895628712e-12
4.895628712e-12
4.895628712e-12
4.895628712e-12
4.895628712e-12
4.895628712e-12
4.895628712e-12
4.895628712e-12
4.895628712e-12
4.895628712e-12
4.895628713e-12
4.895628713e-12
4.895628713e-12
4.895628713e-12
4.895628713e-12
4.895628713e-12
4.895628713e-12
4.895628713e-12
4.895628713e-12
4.895628713e-12
4.895628713e-12
4.895628713e-12
4.895628713e-12
4.895628713e-12
4.895628714e-12
4.895628714e-12
4.895628714e-12
4.895628714e-12
4.895628714e-12
4.895628715e-12
4.895628715e-12
4.895628716e-12
4.895628717e-12
4.895628719e-12
4.895628725e-12
4.895628744e-12
4.895628809e-12
4.895629016e-12
4.895629644e-12
4.895631456e-12
4.895636418e-12
4.895649301e-12
4.895680947e-12
4.895754296e-12
4.895914174e-12
4.896240209e-12
4.896857297e-12
4.897926592e-12
4.899578764e-12
4.90171823e-12
4.902717114e-12
4.902962237e-12
4.903217014e-12
4.903482022e-12
4.903757736e-12
4.904044613e-12
4.904343127e-12
4.904653789e-12
4.904977146e-12
4.90531378e-12
4.905664308e-12
4.90602938e-12
4.906409678e-12
4.906805918e-12
4.907218849e-12
4.907649259e-12
4.908097972e-12
4.908565855e-12
4.909053814e-12
4.909562803e-12
4.91009382e-12
4.910647913e-12
4.91122618e-12
4.911829775e-12
4.912459904e-12
4.913117834e-12
4.913804892e-12
4.91452247e-12
4.915272025e-12
4.916055084e-12
4.916873247e-12
4.917728189e-12
4.918621664e-12
4.91955551e-12
4.920531649e-12
4.921552092e-12
4.922618946e-12
4.923734412e-12
4.924900795e-12
4.926120503e-12
4.927396055e-12
4.928730083e-12
4.930125338e-12
4.931584695e-12
4.933111154e-12
4.934707852e-12
4.936378061e-12
4.938125198e-12
4.939952827e-12
4.941864667e-12
4.943864598e-12
4.945956664e-12
4.948145081e-12
4.950434243e-12
4.952828729e-12
4.955333306e-12
4.957952939e-12
4.960692798e-12
4.963558263e-12
4.966554929e-12
4.969688619e-12
4.972965385e-12
4.976391521e-12
4.979973565e-12
4.98371831e-12
4.987632814e-12
4.9917244e-12
4.996000674e-12
5.000469525e-12
5.005139137e-12
5.010017998e-12
5.015114907e-12
5.020438981e-12
5.025999666e-12
5.031806748e-12
5.037870354e-12
5.044200968e-12
5.05080944e-12
5.057706987e-12
5.064905212e-12
5.072416106e-12
5.08025206e-12
5.088425874e-12
5.096950765e-12
5.105840377e-12
5.115108787e-12
5.124770519e-12
5.13484055e-12
5.145334317e-12
5.156267731e-12
5.167657179e-12
5.179519539e-12
5.191872184e-12
5.204732992e-12
5.218120353e-12
5.232053181e-12
5.246550915e-12
5.261633534e-12
5.277321559e-12
5.293636063e-12
5.310598676e-12
5.328231594e-12
5.346557586e-12
5.365599996e-12
5.385382753e-12
5.405930375e-12
5.427267975e-12
5.449421266e-12
5.472416564e-12
5.496280793e-12
5.521041492e-12
5.546726813e-12
5.573365528e-12
5.600987031e-12
5.629621338e-12
5.659299092e-12
5.690051564e-12
5.72191065e-12
5.754908875e-12
5.789079394e-12
5.824455988e-12
5.861073064e-12
5.898965655e-12
5.938169417e-12
5.978720626e-12
6.020656176e-12
6.064013575e-12
6.108830939e-12
6.155146993e-12
6.203001059e-12
6.252433055e-12
6.303483489e-12
6.356193451e-12
6.410604605e-12
6.466759185e-12
6.524699985e-12
6.584470351e-12
6.646114173e-12
6.709675877e-12
6.775200412e-12
6.842733244e-12
6.912320345e-12
6.984008184e-12
7.057843714e-12
7.133874362e-12
7.212148021e-12
7.292713035e-12
7.375618191e-12
7.460912709e-12
7.548646225e-12
7.638868787e-12
7.731630841e-12
7.826983219e-12
7.924977133e-12
8.025664158e-12
8.129096231e-12
8.235325631e-12
8.344404981e-12
8.456387231e-12
8.571325654e-12
8.689273841e-12
8.810285688e-12
8.934415399e-12
9.061717473e-12
9.192246709e-12
9.326058195e-12
9.463207315e-12
9.603749743e-12
9.747741446e-12
9.895238689e-12
1.004629804e-11
1.020097637e-11
1.035933087e-11
1.052141905e-11
1.068729876e-11
1.085702821e-11
1.103066598e-11
1.120827101e-11
1.138990267e-11
1.157562075e-11
1.176548553e-11
1.195955772e-11
1.21578986e-11
1.236056997e-11
1.256763425e-11
1.277915448e-11
1.299519437e-11
1.321581838e-11
1.344109173e-11
1.367108051e-11
1.390585166e-11
1.414547313e-11
1.439001387e-11
1.463954394e-11
1.489413459e-11
1.515385832e-11
1.541878901e-11
1.568900195e-11
1.596457398e-11
1.62455836e-11
1.653211104e-11
1.682423841e-11
1.712204979e-11
1.742563137e-11
1.773507158e-11
1.805046124e-11
1.837189367e-11
1.869946487e-11
1.903327365e-11
1.937342182e-11
1.972001435e-11
2.007315955e-11
2.043296922e-11
2.07995589e-11
2.117304802e-11
2.155356016e-11
2.194122318e-11
2.233616954e-11
2.273853646e-11
2.31484662e-11
2.356610628e-11
2.399160978e-11
2.442513554e-11
2.48668485e-11
2.531691997e-11
2.577552789e-11
2.624285717e-11
2.671910003e-11
2.720445625e-11
2.769913359e-11
2.820334808e-11
2.871732443e-11
2.924129636e-11
2.977550702e-11
3.032020938e-11
3.087566664e-11
3.144215263e-11
3.201995232e-11
3.260936223e-11
3.321069089e-11
3.382425939e-11
3.445040182e-11
3.508946585e-11
3.574181326e-11
3.64078205e-11
3.708787929e-11
3.778239724e-11
3.849179846e-11
3.921652426e-11
3.995703385e-11
4.071380501e-11
4.148733491e-11
4.227814087e-11
4.30867612e-11
4.391375608e-11
4.475970846e-11
4.562522505e-11
4.651093732e-11
4.74175026e-11
4.834560521e-11
4.929595772e-11
5.026930221e-11
5.126641168e-11
5.22880914e-11
5.333518071e-11
5.440855462e-11
5.550912536e-11
5.663784453e-11
5.779570517e-11
5.898374396e-11
6.020304381e-11
6.145473643e-11
6.27400052e-11
6.406008833e-11
6.541628218e-11
6.680994498e-11
6.824250093e-11
6.971544461e-11
7.123034574e-11
7.27888549e-11
7.439270944e-11
7.604374004e-11
7.774387797e-11
7.949516331e-11
8.129975402e-11
8.315993559e-11
8.507813195e-11
8.70569177e-11
8.909903188e-11
9.120739305e-11
9.338511628e-11
9.563553194e-11
9.796220673e-11
1.003689672e-10
1.028599259e-10
1.05439511e-10
1.081124985e-10
1.108840497e-10
1.137597518e-10
1.167456642e-10
1.1984837e-10
1.230750337e-10
1.264334663e-10
1.29932198e-10
1.335805595e-10
1.373887737e-10
1.413680584e-10
1.455307416e-10
1.498903907e-10
1.54461958e-10
1.59261944e-10
1.643085802e-10
1.696220356e-10
1.752246475e-10
1.811411814e-10
1.87399123e-10
1.940290063e-10
2.010647824e-10
2.085442332e-10
2.165094379e-10
2.250072957e-10
2.340901144e-10
2.438162716e-10
2.54250958e-10
2.654670131e-10
2.775458641e-10
2.905785827e-10
3.046670714e-10
3.199253988e-10
3.364812996e-10
3.544778619e-10
3.740754235e-10
3.954537039e-10
4.188142022e-10
4.443828914e-10
4.724132493e-10
5.031896649e-10
5.370312684e-10
5.742962379e-10
6.153866403e-10
6.60753875e-10
7.109047929e-10
7.664085772e-10
8.27904478e-10
8.96110509e-10
9.718332247e-10
1.055978712e-09
1.149564948e-09
1.253735695e-09
1.369776117e-09
1.499130343e-09
1.643421209e-09
1.804472452e-09
1.984333664e-09
2.185308349e-09
2.40998546e-09
2.661274863e-09
2.942447202e-09
3.257178728e-09
3.609601694e-09
4.00436102e-09
4.446678011e-09
4.942421998e-09
5.498190898e-09
6.12140181e-09
6.82039289e-09
7.604537939e-09
8.484375274e-09
9.47175269e-09
1.057999055e-08
1.182406523e-08
1.322081563e-08
1.478917545e-08
1.655043476e-08
1.85285344e-08
2.07503975e-08
2.324630294e-08
2.605030602e-08
2.920071263e-08
3.27406138e-08
3.671848864e-08
4.118888466e-08
4.621318587e-08
5.186048044e-08
5.820854146e-08
6.534493642e-08
7.336828313e-08
8.238967299e-08
9.253428514e-08
1.039432194e-07
1.167755799e-07
1.312108473e-07
1.47451582e-07
1.657265121e-07
1.862940628e-07
2.094464014e-07
2.355140784e-07
2.648713664e-07
2.979424099e-07
3.352083284e-07
3.772154337e-07
4.245847575e-07
4.780231204e-07
5.383360139e-07
6.064426197e-07
6.83393345e-07
7.703903182e-07
8.688113654e-07
9.802380654e-07
1.106488571e-06
1.249655976e-06
1.412153096e-06
1.596764613e-06
1.806707612e-06
2.04570156e-06
2.318048785e-06
2.628726451e-06
2.983490847e-06
3.388994598e-06
3.852916947e-06
4.384106799e-06
4.992737461e-06
5.690471187e-06
6.490630662e-06
7.40837343e-06
8.460864176e-06
9.667438591e-06
1.104975148e-05
1.26319008e-05
1.444051827e-05
1.650481648e-05
1.885658127e-05
2.153009706e-05
2.456199148e-05
2.799098377e-05
3.185751984e-05
3.620327447e-05
4.107050045e-05
4.650120304e-05
5.253612113e-05
5.921349711e-05
6.656763049e-05
7.462721734e-05
8.341349656e-05
9.293824298e-05
0.0001032016647
0.0001141902671
0.0001258724804
0.0001382065049
0.0001511089729
0.000164519822
0.0001783018374
0.0001922837709
0.0002060649303
0.0002194621107
0.0002321029808
0.0002435402118
0.0002532837637
0.0002609125473
0.0002663202703
0.0002699604618
0.0002728702212
0.0002764034412
0.0002819029473
0.0002905842815
0.0003029044838
0.0003192109831
0.0003392554026
0.0003625728746
0.0003875946994
0.0004131292126
0.0004376216221
0.0004596788822
0.0004775433192
0.0004900338869
0.0004961304983
0.0004951680211
0.0004869152457
0.0004716449338
0.0004500642746
0.0004236134052
0.0003936069751
0.0003618006825
0.000329533431
0.0002979769196
0.0002680009396
0.0002401754798
0.0002145985969
0.0001914509242
0.0001708504979
0.0001526679479
0.0001367151553
0.0001227742895
0.00011061928
0.0001000319138
9.080594265e-05
8.276089109e-05
7.583244449e-05
6.97624066e-05
6.437960973e-05
5.964446901e-05
5.546252003e-05
5.175284878e-05
4.844710551e-05
4.548788202e-05
4.282922409e-05
4.04264993e-05
3.824776501e-05
3.626423071e-05
3.445149531e-05
3.278881716e-05
3.12585142e-05
2.984546815e-05
2.85367134e-05
2.732109497e-05
2.618898369e-05
2.51320385e-05
2.414300803e-05
2.321556473e-05
2.234416616e-05
2.152393887e-05
2.075058088e-05
2.00202801e-05
1.93296455e-05
1.86756493e-05
1.805557803e-05
1.746699129e-05
1.690768668e-05
1.637567005e-05
1.586913012e-05
1.53864168e-05
1.492602256e-05
1.448656648e-05
1.406678039e-05
1.366549695e-05
1.328163925e-05
1.291421172e-05
1.256229226e-05
1.222502521e-05
1.190161526e-05
1.159132201e-05
1.129345516e-05
1.10073702e-05
1.073246463e-05
1.046817451e-05
1.021397139e-05
9.969359514e-06
9.73387336e-06
9.507075346e-06
9.288553781e-06
9.077920998e-06
8.874811641e-06
8.678881116e-06
8.489804159e-06
8.307273532e-06
8.130998821e-06
7.960705333e-06
7.796133077e-06
7.637035823e-06
7.483180238e-06
7.334345078e-06
7.190320452e-06
7.050907121e-06
6.915915869e-06
6.7851669e-06
6.658489285e-06
6.535720449e-06
6.41670569e-06
6.301297725e-06
6.18935628e-06
6.08074769e-06
5.975344537e-06
5.873025309e-06
5.773674075e-06
5.677180187e-06
5.583437998e-06
5.492346595e-06
5.403809554e-06
5.317734701e-06
5.2340339e-06
5.152622839e-06
5.07342084e-06
4.996350675e-06
4.921338393e-06
4.848313158e-06
4.777207094e-06
4.707955143e-06
4.640494925e-06
4.574766613e-06
4.510712807e-06
4.448278422e-06
4.387410576e-06
4.328058488e-06
4.270173382e-06
4.213708392e-06
4.158618477e-06
4.104860337e-06
4.052392332e-06
4.00117441e-06
3.951168036e-06
3.902336125e-06
3.854642975e-06
3.80805421e-06
3.762536722e-06
3.718058615e-06
3.674589154e-06
3.632098714e-06
3.590558734e-06
3.549941673e-06
3.510220966e-06
3.471370985e-06
3.433366998e-06
3.396185133e-06
3.359802344e-06
3.324196378e-06
3.28934574e-06
3.255229665e-06
3.221828088e-06
3.189121617e-06
3.157091505e-06
3.125719629e-06
3.094988458e-06
3.064881037e-06
3.035380963e-06
3.006472363e-06
2.978139872e-06
2.950368619e-06
2.923144203e-06
2.896452679e-06
2.870280539e-06
2.844614698e-06
2.819442475e-06
2.794751583e-06
2.770530109e-06
2.746766505e-06
2.723449573e-06
2.700568454e-06
2.678112612e-06
2.656071828e-06
2.634436185e-06
2.613196058e-06
2.592342105e-06
2.571865256e-06
2.551756705e-06
2.532007899e-06
2.512610532e-06
2.493556534e-06
2.474838064e-06
2.456447502e-06
2.438377444e-06
2.420620692e-06
2.403170247e-06
2.386019304e-06
2.369161245e-06
2.352589635e-06
2.336298211e-06
2.320280882e-06
2.30453172e-06
2.289044956e-06
2.273814975e-06
2.25883631e-06
2.244103639e-06
2.229611781e-06
2.215355687e-06
2.201330443e-06
2.18753126e-06
2.173953472e-06
2.160592533e-06
2.147444013e-06
2.134503594e-06
2.121767067e-06
2.109230329e-06
2.096889379e-06
2.084740316e-06
2.072779334e-06
2.061002722e-06
2.04940686e-06
2.037988216e-06
2.026743344e-06
2.015668879e-06
2.004761541e-06
1.994018125e-06
1.983435503e-06
1.973010622e-06
1.9627405e-06
1.952622227e-06
1.942652958e-06
1.932829916e-06
1.923150388e-06
1.913611723e-06
1.904211331e-06
1.894946683e-06
1.885815304e-06
1.876814777e-06
1.867942739e-06
1.859196881e-06
1.850574943e-06
1.842074719e-06
1.833694048e-06
1.825430818e-06
1.817282964e-06
1.809248466e-06
1.801325346e-06
1.793511671e-06
1.785805549e-06
1.778205126e-06
1.770708593e-06
1.763314174e-06
1.756020133e-06
1.748824771e-06
1.741726423e-06
1.734723461e-06
1.727814289e-06
1.720997344e-06
1.714271096e-06
1.707634046e-06
1.701084726e-06
1.694621698e-06
1.688243553e-06
1.681948909e-06
1.675736413e-06
1.66960474e-06
1.663552589e-06
1.657578688e-06
1.651681787e-06
1.645860662e-06
1.640114112e-06
1.634440962e-06
1.628840058e-06
1.623310267e-06
1.61785048e-06
1.612459608e-06
1.607136584e-06
1.60188036e-06
1.596689909e-06
1.591564223e-06
1.586502312e-06
1.581503205e-06
1.576565951e-06
1.571689613e-06
1.566873275e-06
1.562116036e-06
1.557417012e-06
1.552775334e-06
1.54819015e-06
1.543660624e-06
1.539185933e-06
1.534765271e-06
1.530397846e-06
1.526082879e-06
1.521819606e-06
1.517607275e-06
1.51344515e-06
1.509332504e-06
1.505268627e-06
1.501252819e-06
1.497284391e-06
1.493362669e-06
1.489486989e-06
1.485656698e-06
1.481871154e-06
1.478129728e-06
1.474431799e-06
1.470776759e-06
1.467164007e-06
1.463592956e-06
1.460063026e-06
1.456573647e-06
1.45312426e-06
1.449714315e-06
1.446343268e-06
1.443010588e-06
1.43971575e-06
1.436458239e-06
1.433237548e-06
1.430053177e-06
1.426904637e-06
1.423791443e-06
1.420713121e-06
1.417669203e-06
1.414659228e-06
1.411682744e-06
1.408739304e-06
1.40582847e-06
1.402949811e-06
1.4001029e-06
1.397287318e-06
1.394502655e-06
1.391748504e-06
1.389024466e-06
1.386330147e-06
1.38366516e-06
1.381029123e-06
1.378421661e-06
1.375842404e-06
1.373290987e-06
1.370767051e-06
1.368270243e-06
1.365800215e-06
1.363356623e-06
1.360939129e-06
1.358547401e-06
1.356181109e-06
1.353839932e-06
1.35152355e-06
1.349231649e-06
1.34696392e-06
1.344720058e-06
1.342499763e-06
1.340302738e-06
1.338128691e-06
1.335977335e-06
1.333848386e-06
1.331741564e-06
1.329656594e-06
1.327593205e-06
1.325551127e-06
1.323530097e-06
1.321529855e-06
1.319550143e-06
1.317590708e-06
1.3156513e-06
1.313731673e-06
1.311831584e-06
1.309950793e-06
1.308089065e-06
1.306246165e-06
1.304421864e-06
1.302615935e-06
1.300828154e-06
1.2990583e-06
1.297306157e-06
1.295571508e-06
1.293854141e-06
1.292153848e-06
1.290470422e-06
1.28880366e-06
1.28715336e-06
1.285519323e-06
1.283901355e-06
1.282299262e-06
1.280712853e-06
1.27914194e-06
1.277586337e-06
1.276045861e-06
1.274520331e-06
1.273009568e-06
1.271513395e-06
1.270031639e-06
1.268564127e-06
1.26711069e-06
1.265671161e-06
1.264245372e-06
1.262833162e-06
1.261434369e-06
1.260048833e-06
1.258676397e-06
1.257316906e-06
1.255970205e-06
1.254636144e-06
1.253314573e-06
1.252005344e-06
1.25070831e-06
1.249423327e-06
1.248150254e-06
1.246888948e-06
1.245639272e-06
1.244401086e-06
1.243174257e-06
1.241958649e-06
1.240754129e-06
1.239560568e-06
1.238377835e-06
1.237205803e-06
1.236044345e-06
1.234893336e-06
1.233752653e-06
1.232622173e-06
1.231501777e-06
1.230391345e-06
1.229290759e-06
1.228199903e-06
1.227118662e-06
1.226046921e-06
1.224984569e-06
1.223931494e-06
1.222887586e-06
1.221852736e-06
1.220826838e-06
1.219809784e-06
1.218801469e-06
1.21780179e-06
1.216810643e-06
1.215827928e-06
1.214853543e-06
1.213887389e-06
1.212929368e-06
1.211979381e-06
1.211037334e-06
1.21010313e-06
1.209176676e-06
1.208257878e-06
1.207346643e-06
1.206442882e-06
1.205546502e-06
1.204657415e-06
1.203775533e-06
1.202900767e-06
1.202033031e-06
1.201172238e-06
1.200318305e-06
1.199471147e-06
1.19863068e-06
1.197796823e-06
1.196969492e-06
1.196148608e-06
1.19533409e-06
1.194525859e-06
1.193723836e-06
1.192927943e-06
1.192138103e-06
1.191354239e-06
1.190576276e-06
1.189804138e-06
1.18903775e-06
1.188277039e-06
1.187521932e-06
1.186772355e-06
1.186028237e-06
1.185289506e-06
1.184556092e-06
1.183827923e-06
1.18310493e-06
1.182387044e-06
1.181674196e-06
1.180966317e-06
1.180263339e-06
1.179565196e-06
1.178871819e-06
1.178183144e-06
1.177499103e-06
1.17681963e-06
1.176144661e-06
1.17547413e-06
1.174807974e-06
1.174146126e-06
1.173488524e-06
1.172835104e-06
1.172185802e-06
1.171540555e-06
1.1708993e-06
1.170261975e-06
1.169628517e-06
1.168998863e-06
1.168372953e-06
1.167750723e-06
1.167132111e-06
1.166517057e-06
1.165905498e-06
1.165297373e-06
1.164692621e-06
1.164091179e-06
1.163492986e-06
1.162897982e-06
1.162306103e-06
1.16171729e-06
1.161131479e-06
1.160548609e-06
1.159968619e-06
1.159391445e-06
1.158817027e-06
1.1582453e-06
1.157676203e-06
1.157109672e-06
1.156545643e-06
1.155984052e-06
1.155424836e-06
1.154867929e-06
1.154313265e-06
1.15376078e-06
1.153210406e-06
1.152662077e-06
1.152115724e-06
1.15157128e-06
1.151028675e-06
1.150487841e-06
1.149948706e-06
1.149411203e-06
1.148875259e-06
1.148340804e-06
1.147807768e-06
1.147276079e-06
1.146745664e-06
1.146216448e-06
1.145688349e-06
1.145161279e-06
1.144635132e-06
1.14410978e-06
1.143585055e-06
1.143060742e-06
1.138795053e-06
1.132318064e-06
1.126155929e-06
1.120287368e-06
1.114675177e-06
1.109286288e-06
1.104091139e-06
1.099062786e-06
1.094176315e-06
1.089408352e-06
1.084736658e-06
1.080139818e-06
1.07559699e-06
1.071087719e-06
1.066591805e-06
1.062089214e-06
1.057560031e-06
1.052984459e-06
1.048342854e-06
1.043615785e-06
1.03878414e-06
1.033829242e-06
1.028733001e-06
1.023478085e-06
1.018048096e-06
1.012427769e-06
1.006603171e-06
1.000561909e-06
9.942933255e-07
9.877886958e-07
9.810414086e-07
9.740471317e-07
9.668039551e-07
9.593125102e-07
9.515760589e-07
9.436005505e-07
9.353946419e-07
9.26969683e-07
9.183396616e-07
9.095211093e-07
9.005329678e-07
8.913964196e-07
8.82134681e-07
8.727727633e-07
8.633372061e-07
8.538557853e-07
8.44357202e-07
8.348707587e-07
8.254260282e-07
8.160525212e-07
8.067793573e-07
7.976349505e-07
7.886467062e-07
7.798407451e-07
7.712416494e-07
7.628722395e-07
7.547533851e-07
7.469038475e-07
7.393401605e-07
7.320765451e-07
7.251248587e-07
7.184945804e-07
7.121928261e-07
7.062243914e-07
7.005918236e-07
6.952955148e-07
6.903338144e-07
6.857031596e-07
6.813982151e-07
6.774120261e-07
6.737361755e-07
6.703609458e-07
6.672754809e-07
6.644679483e-07
6.619256972e-07
6.596354121e-07
6.575832613e-07
6.557550373e-07
6.541362909e-07
6.527124562e-07
6.514689678e-07
6.503913695e-07
6.494654145e-07
6.486771574e-07
6.48013038e-07
6.474599576e-07
6.470053473e-07
6.466372288e-07
6.463442682e-07
6.461158215e-07
6.459419738e-07
6.458135698e-07
6.457222375e-07
6.456604025e-07
6.456212957e-07
6.45598951e-07
6.455881949e-07
6.455846278e-07
6.455845956e-07
6.455851544e-07
6.455840262e-07
6.455795477e-07
6.455706135e-07
6.455566132e-07
6.455373656e-07
6.455130496e-07
6.454841352e-07
6.454513146e-07
6.454154355e-07
6.453774388e-07
6.453383009e-07
6.452989825e-07
6.45260385e-07
6.452233143e-07
6.451884537e-07
6.451563446e-07
6.451273759e-07
6.451017813e-07
6.450796436e-07
6.450609052e-07
6.450453838e-07
6.450327923e-07
6.450227609e-07
6.450148611e-07
6.450086298e-07
6.450035928e-07
6.449992861e-07
6.449952749e-07
6.449911694e-07
6.449866371e-07
6.44981411e-07
6.449752942e-07
6.449681612e-07
6.449599551e-07
6.449506827e-07
6.449404068e-07
6.449292372e-07
6.4491732e-07
6.449048272e-07
6.448919453e-07
6.448788657e-07
6.448657752e-07
6.448528482e-07
6.448402403e-07
6.448280836e-07
6.448164839e-07
6.448055196e-07
6.447952411e-07
6.447856732e-07
6.447768169e-07
6.447686532e-07
6.447611465e-07
6.447542486e-07
6.44747903e-07
6.447420486e-07
6.447366227e-07
6.447315645e-07
6.447268168e-07
6.447223283e-07
6.44718054e-07
6.447139565e-07
6.447100053e-07
6.447061773e-07
6.447024554e-07
6.446988285e-07
6.446952898e-07
6.446918367e-07
6.446884695e-07
6.446851907e-07
6.446820047e-07
6.446789169e-07
6.44675934e-07
6.446730633e-07
6.446703127e-07
6.446676909e-07
6.446652071e-07
6.446628713e-07
6.446606939e-07
6.446586858e-07
6.446568581e-07
6.446552222e-07
6.446537887e-07
6.446525681e-07
6.446515694e-07
6.446508003e-07
6.446502667e-07
6.44649972e-07
6.446499172e-07
6.446501002e-07
6.44650516e-07
6.446511566e-07
6.446520104e-07
6.446530632e-07
6.446542977e-07
6.44655694e-07
6.4465723e-07
6.446588816e-07
6.44660623e-07
6.446624278e-07
6.446642684e-07
6.446661174e-07
6.446679476e-07
6.446697324e-07
6.446714464e-07
6.446730656e-07
6.446745677e-07
6.446759325e-07
6.446771422e-07
6.446781813e-07
6.446790369e-07
6.446796989e-07
6.4468016e-07
6.446804153e-07
6.446804629e-07
6.446803032e-07
6.446799391e-07
6.446793758e-07
6.446786206e-07
6.446776824e-07
6.446765719e-07
6.446753011e-07
6.446738832e-07
6.446723322e-07
6.446706628e-07
6.446688901e-07
6.446670295e-07
6.446650965e-07
6.446631064e-07
6.446610744e-07
6.446590152e-07
6.44656943e-07
6.446548714e-07
6.446528136e-07
6.446507817e-07
6.446487871e-07
6.446468406e-07
6.446449517e-07
6.446431293e-07
6.446413812e-07
6.446397143e-07
6.446381344e-07
6.446366465e-07
6.446352544e-07
6.446339612e-07
6.446327689e-07
6.446316792e-07
6.446306942e-07
6.446298208e-07
6.446290848e-07
6.446285745e-07
)
;

boundaryField
{
    inlet
    {
        type            fixedValue;
        value           uniform 0;
    }
    outlet
    {
        type            zeroGradient;
    }
    wall
    {
        type            empty;
    }
}


// ************************************************************************* //
