/*--------------------------------*- C++ -*----------------------------------*\
  =========                 |
  \\      /  F ield         | OpenFOAM: The Open Source CFD Toolbox
   \\    /   O peration     | Website:  https://openfoam.org
    \\  /    A nd           | Version:  7
     \\/     M anipulation  |
\*---------------------------------------------------------------------------*/
FoamFile
{
    version     2.0;
    format      ascii;
    class       volScalarField;
    location    "0.000558243009";
    object      HO2_0;
}
// * * * * * * * * * * * * * * * * * * * * * * * * * * * * * * * * * * * * * //

dimensions      [0 0 0 0 0 0 0];

internalField   nonuniform List<scalar> 
1500
(
2.56905283e-13
1.006176278e-12
2.079406375e-12
3.135130604e-12
3.935035508e-12
4.432648358e-12
4.696443519e-12
4.818419928e-12
4.868432338e-12
4.88685425e-12
4.893017102e-12
4.894907021e-12
4.895442507e-12
4.895583639e-12
4.895618439e-12
4.895626508e-12
4.895628274e-12
4.895628641e-12
4.895628713e-12
4.895628726e-12
4.895628728e-12
4.895628728e-12
4.895628728e-12
4.895628728e-12
4.895628728e-12
4.895628728e-12
4.895628728e-12
4.895628728e-12
4.895628728e-12
4.895628728e-12
4.895628729e-12
4.895628729e-12
4.895628729e-12
4.895628729e-12
4.895628729e-12
4.895628729e-12
4.895628729e-12
4.895628728e-12
4.895628728e-12
4.895628728e-12
4.895628728e-12
4.895628728e-12
4.895628728e-12
4.895628728e-12
4.895628728e-12
4.895628728e-12
4.895628728e-12
4.895628727e-12
4.895628727e-12
4.895628727e-12
4.895628727e-12
4.895628727e-12
4.895628727e-12
4.895628727e-12
4.895628727e-12
4.895628727e-12
4.895628727e-12
4.895628727e-12
4.895628727e-12
4.895628727e-12
4.895628727e-12
4.895628727e-12
4.895628727e-12
4.895628727e-12
4.895628727e-12
4.895628727e-12
4.895628727e-12
4.895628727e-12
4.895628727e-12
4.895628727e-12
4.895628727e-12
4.895628727e-12
4.895628727e-12
4.895628727e-12
4.895628728e-12
4.895628728e-12
4.895628728e-12
4.895628728e-12
4.895628728e-12
4.895628728e-12
4.895628728e-12
4.895628728e-12
4.895628728e-12
4.895628728e-12
4.895628728e-12
4.895628728e-12
4.895628728e-12
4.895628728e-12
4.895628728e-12
4.895628728e-12
4.895628728e-12
4.895628728e-12
4.895628728e-12
4.895628728e-12
4.895628728e-12
4.895628728e-12
4.895628728e-12
4.895628728e-12
4.895628728e-12
4.895628727e-12
4.895628727e-12
4.895628727e-12
4.895628727e-12
4.895628727e-12
4.895628727e-12
4.895628727e-12
4.895628727e-12
4.895628727e-12
4.895628727e-12
4.895628727e-12
4.895628727e-12
4.895628727e-12
4.895628727e-12
4.895628727e-12
4.895628727e-12
4.895628727e-12
4.895628727e-12
4.895628727e-12
4.895628727e-12
4.895628727e-12
4.895628727e-12
4.895628727e-12
4.895628727e-12
4.895628727e-12
4.895628727e-12
4.895628727e-12
4.895628727e-12
4.895628727e-12
4.895628727e-12
4.895628727e-12
4.895628727e-12
4.895628727e-12
4.895628727e-12
4.895628727e-12
4.895628727e-12
4.895628727e-12
4.895628727e-12
4.895628727e-12
4.895628727e-12
4.895628727e-12
4.895628727e-12
4.895628727e-12
4.895628727e-12
4.895628727e-12
4.895628727e-12
4.895628727e-12
4.895628727e-12
4.895628727e-12
4.895628727e-12
4.895628727e-12
4.895628727e-12
4.895628727e-12
4.895628727e-12
4.895628727e-12
4.895628727e-12
4.895628727e-12
4.895628727e-12
4.895628728e-12
4.895628728e-12
4.895628728e-12
4.895628728e-12
4.895628728e-12
4.895628728e-12
4.895628728e-12
4.895628728e-12
4.895628728e-12
4.895628728e-12
4.895628728e-12
4.895628728e-12
4.895628728e-12
4.895628728e-12
4.895628728e-12
4.895628728e-12
4.895628728e-12
4.895628728e-12
4.895628728e-12
4.895628728e-12
4.895628728e-12
4.895628728e-12
4.895628728e-12
4.895628728e-12
4.895628728e-12
4.895628728e-12
4.895628728e-12
4.895628728e-12
4.895628728e-12
4.895628728e-12
4.895628727e-12
4.895628727e-12
4.895628727e-12
4.895628727e-12
4.895628727e-12
4.895628727e-12
4.895628727e-12
4.895628727e-12
4.895628727e-12
4.895628727e-12
4.895628727e-12
4.895628727e-12
4.895628727e-12
4.895628727e-12
4.895628727e-12
4.895628727e-12
4.895628727e-12
4.895628727e-12
4.895628728e-12
4.895628728e-12
4.895628728e-12
4.895628728e-12
4.895628728e-12
4.895628728e-12
4.895628728e-12
4.895628728e-12
4.895628728e-12
4.895628729e-12
4.895628729e-12
4.895628729e-12
4.895628729e-12
4.895628729e-12
4.895628729e-12
4.895628729e-12
4.895628729e-12
4.895628729e-12
4.895628729e-12
4.895628729e-12
4.895628729e-12
4.895628729e-12
4.89562873e-12
4.89562873e-12
4.89562873e-12
4.895628731e-12
4.895628731e-12
4.895628732e-12
4.895628734e-12
4.89562874e-12
4.89562876e-12
4.895628825e-12
4.895629032e-12
4.89562966e-12
4.895631473e-12
4.895636439e-12
4.895649334e-12
4.895681011e-12
4.89575444e-12
4.895914505e-12
4.896240944e-12
4.896858835e-12
4.897929579e-12
4.899584063e-12
4.901726604e-12
4.902727119e-12
4.902972459e-12
4.903227566e-12
4.903492975e-12
4.903769124e-12
4.904056451e-12
4.90435543e-12
4.904666571e-12
4.904990425e-12
4.905327575e-12
4.905678642e-12
4.906044277e-12
4.906425164e-12
4.90682202e-12
4.907235596e-12
4.90766668e-12
4.908116099e-12
4.90858472e-12
4.909073452e-12
4.909583249e-12
4.910115113e-12
4.910670092e-12
4.911249287e-12
4.911853852e-12
4.912484998e-12
4.913143993e-12
4.913832167e-12
4.914550914e-12
4.915301693e-12
4.916086035e-12
4.916905542e-12
4.917761892e-12
4.918656843e-12
4.919592235e-12
4.920569994e-12
4.921592136e-12
4.922660769e-12
4.9237781e-12
4.924946437e-12
4.926168193e-12
4.927445891e-12
4.928782168e-12
4.930179779e-12
4.931641605e-12
4.933170651e-12
4.934770059e-12
4.936443108e-12
4.938193219e-12
4.940023964e-12
4.941939068e-12
4.943942417e-12
4.946038062e-12
4.948230227e-12
4.950523313e-12
4.952921907e-12
4.955430783e-12
4.958054918e-12
4.960799487e-12
4.963669879e-12
4.966671701e-12
4.969810784e-12
4.973093191e-12
4.976525225e-12
4.980113436e-12
4.983864629e-12
4.98778587e-12
4.991884499e-12
4.99616813e-12
5.000644666e-12
5.005322306e-12
5.01020955e-12
5.01531521e-12
5.02064842e-12
5.026218639e-12
5.032035668e-12
5.038109652e-12
5.04445109e-12
5.051070847e-12
5.05798016e-12
5.065190648e-12
5.072714321e-12
5.080563588e-12
5.088751269e-12
5.0972906e-12
5.106195244e-12
5.115479301e-12
5.125157316e-12
5.135244285e-12
5.145755671e-12
5.156707404e-12
5.168115898e-12
5.179998051e-12
5.192371262e-12
5.205253434e-12
5.218662983e-12
5.232618847e-12
5.247140493e-12
5.262247926e-12
5.277961694e-12
5.294302897e-12
5.311293196e-12
5.328954814e-12
5.347310549e-12
5.366383775e-12
5.386198452e-12
5.406779128e-12
5.428150947e-12
5.450339653e-12
5.473371595e-12
5.497273729e-12
5.522073625e-12
5.54779947e-12
5.57448007e-12
5.60214485e-12
5.630823862e-12
5.660547784e-12
5.69134792e-12
5.723256201e-12
5.756305189e-12
5.790528073e-12
5.825958669e-12
5.862631421e-12
5.900581397e-12
5.93984429e-12
5.980456412e-12
6.022454693e-12
6.065876677e-12
6.110760518e-12
6.157144975e-12
6.205069408e-12
6.254573771e-12
6.305698608e-12
6.358485045e-12
6.412974783e-12
6.469210092e-12
6.527233801e-12
6.587089292e-12
6.64882049e-12
6.712471856e-12
6.778088375e-12
6.845715546e-12
6.915399378e-12
6.98718637e-12
7.061123511e-12
7.137258261e-12
7.215638545e-12
7.296312741e-12
7.379329667e-12
7.464738573e-12
7.552589128e-12
7.642931411e-12
7.735815896e-12
7.831293447e-12
7.929415302e-12
8.030233068e-12
8.133798706e-12
8.240164527e-12
8.349383178e-12
8.461507636e-12
8.576591202e-12
8.69468749e-12
8.815850423e-12
8.940134229e-12
9.067593431e-12
9.198282852e-12
9.332257605e-12
9.469573095e-12
9.61028502e-12
9.754449369e-12
9.902122431e-12
1.005336079e-11
1.020822135e-11
1.036676132e-11
1.052903823e-11
1.069510996e-11
1.086503473e-11
1.103887114e-11
1.121667817e-11
1.13985152e-11
1.158444207e-11
1.177451904e-11
1.196880688e-11
1.216736689e-11
1.237026089e-11
1.257755134e-11
1.278930129e-11
1.300557451e-11
1.322643547e-11
1.345194945e-11
1.368218254e-11
1.391720175e-11
1.415707505e-11
1.440187145e-11
1.465166105e-11
1.490651516e-11
1.516650632e-11
1.543170846e-11
1.570219695e-11
1.597804869e-11
1.625934223e-11
1.654615788e-11
1.683857783e-11
1.713668625e-11
1.74405694e-11
1.775031582e-11
1.806601642e-11
1.838776462e-11
1.871565653e-11
1.904979109e-11
1.939027023e-11
1.973719906e-11
2.009068601e-11
2.045084304e-11
2.081778586e-11
2.119163406e-11
2.157251138e-11
2.196054589e-11
2.235587024e-11
2.275862185e-11
2.31689432e-11
2.358698206e-11
2.401289172e-11
2.444683131e-11
2.488896603e-11
2.533946745e-11
2.579851384e-11
2.626629041e-11
2.67429897e-11
2.722881185e-11
2.772396496e-11
2.822866546e-11
2.874313844e-11
2.926761805e-11
2.980234786e-11
3.034758129e-11
3.090358202e-11
3.147062439e-11
3.204899388e-11
3.263898752e-11
3.324091445e-11
3.38550963e-11
3.448186781e-11
3.512157728e-11
3.577458714e-11
3.644127454e-11
3.712203192e-11
3.781726764e-11
3.852740659e-11
3.92528909e-11
3.99941806e-11
4.075175437e-11
4.152611029e-11
4.231776662e-11
4.312726265e-11
4.395515959e-11
4.480204145e-11
4.566851604e-11
4.655521597e-11
4.746279977e-11
4.839195298e-11
4.934338944e-11
5.031785256e-11
5.131611679e-11
5.233898869e-11
5.338730919e-11
5.446195492e-11
5.556383962e-11
5.66939166e-11
5.78531806e-11
5.904267011e-11
6.02634699e-11
6.151671366e-11
6.280358682e-11
6.412532972e-11
6.548324094e-11
6.687868103e-11
6.831307659e-11
6.978792483e-11
7.13047979e-11
7.286534919e-11
7.447131893e-11
7.612454086e-11
7.782694933e-11
7.958058773e-11
8.13876177e-11
8.325032847e-11
8.517114787e-11
8.715265465e-11
8.919759223e-11
9.130888388e-11
9.348964963e-11
9.574322518e-11
9.807318291e-11
1.004833554e-10
1.029778619e-10
1.055611372e-10
1.082379653e-10
1.110135153e-10
1.138933833e-10
1.168836381e-10
1.199908732e-10
1.232222644e-10
1.26585635e-10
1.300895282e-10
1.337432895e-10
1.375571578e-10
1.415423683e-10
1.457112682e-10
1.500774462e-10
1.546558778e-10
1.594630892e-10
1.645173404e-10
1.698388317e-10
1.754499351e-10
1.813754546e-10
1.876429187e-10
1.942829087e-10
2.013294283e-10
2.08820318e-10
2.16797722e-10
2.253086119e-10
2.344053763e-10
2.441464825e-10
2.545972215e-10
2.658305443e-10
2.779280029e-10
2.909808078e-10
3.050910166e-10
3.203728709e-10
3.369542988e-10
3.54978604e-10
3.74606365e-10
3.960175704e-10
4.194140195e-10
4.450220207e-10
4.730954261e-10
5.039190429e-10
5.37812468e-10
5.751344005e-10
6.162874893e-10
6.617237827e-10
7.119508565e-10
7.67538702e-10
8.291274713e-10
8.974361842e-10
9.732725166e-10
1.057543806e-09
1.151269425e-09
1.255594687e-09
1.371806487e-09
1.501350883e-09
1.645852854e-09
1.807138527e-09
1.987260153e-09
2.18852419e-09
2.413522879e-09
2.665169739e-09
2.946739475e-09
3.261912846e-09
3.614827111e-09
4.010132748e-09
4.453057223e-09
4.949476703e-09
5.505996677e-09
6.130042636e-09
6.829962026e-09
7.615138928e-09
8.496123031e-09
9.484774701e-09
1.059442819e-08
1.184007521e-08
1.323857158e-08
1.480886967e-08
1.657228011e-08
1.855276638e-08
2.077727657e-08
2.327611694e-08
2.608337292e-08
2.923738347e-08
3.278127591e-08
3.676356909e-08
4.123885407e-08
4.626856247e-08
5.192183451e-08
5.827650007e-08
6.542018854e-08
7.345158518e-08
8.248185466e-08
9.263625568e-08
1.040559743e-07
1.16900208e-07
1.313485379e-07
1.476036332e-07
1.658943381e-07
1.864792026e-07
2.09650527e-07
2.357390029e-07
2.651190517e-07
2.982149744e-07
3.355080524e-07
3.775447641e-07
4.249463095e-07
4.784196753e-07
5.387705121e-07
6.069181461e-07
6.83913104e-07
7.709575957e-07
8.694294708e-07
9.809102488e-07
1.107217906e-06
1.250445197e-06
1.41300437e-06
1.597679238e-06
1.8076856e-06
2.046741083e-06
2.319145439e-06
2.62987228e-06
2.984673077e-06
3.390193977e-06
3.854105623e-06
4.385245608e-06
4.993772494e-06
5.691329505e-06
6.491214983e-06
7.408555631e-06
8.460477449e-06
9.666268118e-06
1.104752357e-05
1.262827049e-05
1.443505566e-05
1.649699217e-05
1.884575168e-05
2.151549066e-05
2.454269744e-05
2.796594479e-05
3.18255312e-05
3.616299156e-05
4.102045691e-05
4.643984159e-05
5.246183876e-05
5.912470519e-05
6.646282953e-05
7.450508361e-05
8.327297457e-05
9.27786338e-05
0.0001030226998
0.0001139921809
0.0001256546251
0.0001379719029
0.0001508539696
0.0001642601145
0.0001780544387
0.0001920731477
0.0002058633807
0.0002192815385
0.0002319526994
0.0002434245771
0.0002532027203
0.0002608682134
0.0002663229155
0.0002700214554
0.0002729824937
0.0002765429626
0.0002820326754
0.0002906697214
0.0003029265771
0.0003191721037
0.0003391986961
0.0003625321451
0.0003876774934
0.0004134380705
0.000438267762
0.0004606361027
0.0004789394593
0.0004918501748
0.0004983149421
0.0004976420064
0.0004895955568
0.0004744433735
0.0004529408064
0.0004264540851
0.000396351906
0.0003643655023
0.0003318675704
0.0003000457767
0.0002697818887
0.0002416531998
0.0002158725772
0.000192518514
0.0001717257219
0.000153374888
0.0001372805897
0.0001232255488
0.0001109862478
0.0001003398655
9.107220811e-05
8.300186468e-05
7.602060271e-05
6.990763512e-05
6.451223055e-05
5.976537318e-05
5.557152701e-05
5.18500057e-05
4.853299177e-05
4.556352726e-05
4.289444272e-05
4.048393182e-05
3.829858149e-05
3.63094624e-05
3.449201944e-05
3.282536322e-05
3.129168053e-05
2.987574206e-05
2.85644909e-05
2.734669849e-05
2.621267703e-05
2.515403894e-05
2.416349609e-05
2.323469184e-05
2.236206061e-05
2.15407104e-05
2.07663243e-05
2.003507801e-05
1.934357044e-05
1.868876539e-05
1.806794235e-05
1.747865491e-05
1.691869554e-05
1.638606563e-05
1.587895007e-05
1.539569538e-05
1.49347911e-05
1.449485368e-05
1.407461266e-05
1.367289866e-05
1.328863294e-05
1.292081832e-05
1.256853123e-05
1.223091471e-05
1.190717227e-05
1.159656244e-05
1.129839395e-05
1.101202141e-05
1.073684152e-05
1.047228959e-05
1.02178365e-05
9.97298587e-06
9.737271592e-06
9.510255548e-06
9.291525546e-06
9.08069345e-06
8.877393467e-06
8.681280591e-06
8.492029173e-06
8.30933161e-06
8.132897146e-06
7.962450761e-06
7.797732157e-06
7.638494814e-06
7.484505122e-06
7.335541574e-06
7.191394029e-06
7.051863012e-06
6.916759079e-06
6.78590222e-06
6.659121301e-06
6.536253552e-06
6.417144082e-06
6.301645433e-06
6.18961716e-06
6.080925436e-06
5.975442689e-06
5.873047259e-06
5.773623075e-06
5.677059353e-06
5.583250318e-06
5.492094934e-06
5.40349666e-06
5.317363211e-06
5.233606341e-06
5.152141638e-06
5.072888326e-06
4.995769082e-06
4.920709867e-06
4.847639758e-06
4.776490798e-06
4.707197849e-06
4.639698459e-06
4.573932726e-06
4.509843183e-06
4.447374679e-06
4.386474268e-06
4.32709111e-06
4.269176372e-06
4.212683133e-06
4.157566297e-06
4.103782514e-06
4.051290095e-06
4.000048942e-06
3.950020474e-06
3.901167564e-06
3.853454468e-06
3.806846771e-06
3.761311328e-06
3.716816205e-06
3.673330633e-06
3.630824952e-06
3.589270571e-06
3.548639917e-06
3.508906395e-06
3.470044349e-06
3.43202902e-06
3.394836509e-06
3.358443745e-06
3.32282845e-06
3.287969106e-06
3.253844927e-06
3.220435824e-06
3.187722386e-06
3.155685847e-06
3.124308061e-06
3.093571483e-06
3.063459138e-06
3.033954606e-06
3.005041997e-06
2.976705933e-06
2.948931524e-06
2.921704357e-06
2.895010472e-06
2.868836349e-06
2.843168887e-06
2.817995396e-06
2.793303573e-06
2.769081497e-06
2.745317607e-06
2.722000695e-06
2.699119891e-06
2.67666465e-06
2.654624742e-06
2.632990241e-06
2.611751514e-06
2.59089921e-06
2.570424251e-06
2.550317823e-06
2.530571365e-06
2.511176563e-06
2.492125341e-06
2.473409851e-06
2.455022466e-06
2.436955777e-06
2.419202577e-06
2.401755863e-06
2.384608825e-06
2.367754839e-06
2.351187463e-06
2.334900431e-06
2.318887646e-06
2.303143176e-06
2.287661246e-06
2.272436238e-06
2.257462681e-06
2.242735248e-06
2.228248754e-06
2.213998147e-06
2.199978509e-06
2.186185046e-06
2.172613091e-06
2.159258093e-06
2.14611562e-06
2.13318135e-06
2.120451072e-06
2.107920679e-06
2.095586167e-06
2.083443633e-06
2.071489269e-06
2.059719361e-06
2.048130287e-06
2.036718512e-06
2.025480587e-06
2.014413148e-06
2.003512909e-06
1.992776665e-06
1.982201287e-06
1.971783718e-06
1.961520976e-06
1.951410146e-06
1.941448386e-06
1.931632914e-06
1.921961016e-06
1.91243004e-06
1.903037396e-06
1.89378055e-06
1.884657027e-06
1.875664411e-06
1.866800335e-06
1.85806249e-06
1.849448614e-06
1.8409565e-06
1.832583986e-06
1.82432896e-06
1.816189354e-06
1.808163147e-06
1.800248361e-06
1.792443062e-06
1.784745356e-06
1.777153391e-06
1.769665353e-06
1.762279467e-06
1.754993998e-06
1.747807243e-06
1.740717538e-06
1.733723253e-06
1.726822792e-06
1.720014592e-06
1.713297121e-06
1.706668881e-06
1.700128401e-06
1.693674244e-06
1.687304998e-06
1.681019284e-06
1.674815746e-06
1.668693059e-06
1.662649922e-06
1.65668506e-06
1.650797225e-06
1.644985192e-06
1.63924776e-06
1.633583751e-06
1.627992012e-06
1.62247141e-06
1.617020835e-06
1.611639197e-06
1.606325429e-06
1.601078483e-06
1.595897331e-06
1.590780964e-06
1.585728392e-06
1.580738645e-06
1.575810769e-06
1.570943828e-06
1.566136906e-06
1.5613891e-06
1.556699526e-06
1.552067316e-06
1.547491617e-06
1.542971591e-06
1.538506417e-06
1.534095288e-06
1.529737409e-06
1.525432004e-06
1.521178307e-06
1.516975566e-06
1.512823044e-06
1.508720015e-06
1.504665767e-06
1.5006596e-06
1.496700826e-06
1.492788769e-06
1.488922765e-06
1.48510216e-06
1.481326314e-06
1.477594596e-06
1.473906384e-06
1.47026107e-06
1.466658054e-06
1.463096747e-06
1.459576569e-06
1.45609695e-06
1.452657331e-06
1.44925716e-06
1.445895895e-06
1.442573002e-06
1.439287958e-06
1.436040246e-06
1.432829359e-06
1.429654798e-06
1.426516071e-06
1.423412695e-06
1.420344195e-06
1.417310101e-06
1.414309954e-06
1.4113433e-06
1.408409692e-06
1.405508693e-06
1.402639868e-06
1.399802793e-06
1.396997049e-06
1.394222223e-06
1.391477908e-06
1.388763706e-06
1.386079222e-06
1.383424068e-06
1.380797862e-06
1.378200229e-06
1.375630798e-06
1.373089204e-06
1.370575088e-06
1.368088096e-06
1.365627879e-06
1.363194093e-06
1.3607864e-06
1.358404467e-06
1.356047964e-06
1.353716569e-06
1.351409962e-06
1.349127829e-06
1.34686986e-06
1.344635749e-06
1.342425196e-06
1.340237904e-06
1.338073581e-06
1.335931938e-06
1.333812691e-06
1.33171556e-06
1.329640269e-06
1.327586546e-06
1.325554122e-06
1.323542733e-06
1.321552118e-06
1.319582018e-06
1.317632181e-06
1.315702357e-06
1.313792297e-06
1.311901759e-06
1.310030503e-06
1.308178292e-06
1.306344892e-06
1.304530072e-06
1.302733606e-06
1.300955269e-06
1.299194839e-06
1.297452099e-06
1.295726832e-06
1.294018827e-06
1.292327874e-06
1.290653765e-06
1.288996297e-06
1.287355267e-06
1.285730478e-06
1.284121732e-06
1.282528836e-06
1.280951598e-06
1.279389831e-06
1.277843347e-06
1.276311962e-06
1.274795495e-06
1.273293767e-06
1.271806601e-06
1.270333822e-06
1.268875257e-06
1.267430736e-06
1.266000091e-06
1.264583157e-06
1.263179768e-06
1.261789763e-06
1.260412982e-06
1.259049267e-06
1.257698462e-06
1.256360414e-06
1.255034969e-06
1.253721978e-06
1.252421292e-06
1.251132764e-06
1.24985625e-06
1.248591606e-06
1.247338692e-06
1.246097367e-06
1.244867493e-06
1.243648935e-06
1.242441557e-06
1.241245226e-06
1.240059811e-06
1.238885181e-06
1.237721209e-06
1.236567768e-06
1.235424731e-06
1.234291975e-06
1.233169378e-06
1.232056818e-06
1.230954176e-06
1.229861333e-06
1.228778172e-06
1.227704578e-06
1.226640436e-06
1.225585634e-06
1.224540059e-06
1.223503602e-06
1.222476152e-06
1.221457603e-06
1.220447847e-06
1.219446778e-06
1.218454292e-06
1.217470287e-06
1.216494659e-06
1.215527308e-06
1.214568133e-06
1.213617037e-06
1.212673921e-06
1.211738688e-06
1.210811243e-06
1.209891491e-06
1.208979339e-06
1.208074693e-06
1.207177463e-06
1.206287557e-06
1.205404885e-06
1.204529359e-06
1.203660891e-06
1.202799393e-06
1.20194478e-06
1.201096966e-06
1.200255866e-06
1.199421397e-06
1.198593477e-06
1.197772022e-06
1.196956952e-06
1.196148187e-06
1.195345647e-06
1.194549252e-06
1.193758925e-06
1.192974587e-06
1.192196164e-06
1.191423577e-06
1.190656752e-06
1.189895615e-06
1.18914009e-06
1.188390105e-06
1.187645586e-06
1.186906462e-06
1.186172661e-06
1.185444111e-06
1.184720743e-06
1.184002486e-06
1.18328927e-06
1.182581028e-06
1.18187769e-06
1.181179188e-06
1.180485456e-06
1.179796425e-06
1.17911203e-06
1.178432204e-06
1.177756882e-06
1.177085999e-06
1.176419488e-06
1.175757286e-06
1.175099329e-06
1.174445552e-06
1.173795893e-06
1.173150286e-06
1.17250867e-06
1.171870982e-06
1.171237159e-06
1.170607138e-06
1.169980859e-06
1.169358257e-06
1.168739273e-06
1.168123843e-06
1.167511908e-06
1.166903404e-06
1.166298271e-06
1.165696447e-06
1.165097872e-06
1.164502483e-06
1.16391022e-06
1.163321021e-06
1.162734826e-06
1.162151571e-06
1.161571197e-06
1.160993642e-06
1.160418843e-06
1.159846738e-06
1.159277266e-06
1.158710364e-06
1.158145968e-06
1.157584017e-06
1.157024446e-06
1.156467191e-06
1.155912188e-06
1.155359371e-06
1.154808674e-06
1.15426003e-06
1.15371337e-06
1.153168626e-06
1.152625725e-06
1.152084595e-06
1.151545161e-06
1.151007344e-06
1.150471065e-06
1.149936237e-06
1.149402774e-06
1.148870582e-06
1.148339562e-06
1.147809609e-06
1.147280607e-06
1.146752432e-06
1.146224942e-06
1.145697976e-06
1.145171343e-06
1.144644796e-06
1.144118021e-06
1.139826283e-06
1.133204714e-06
1.126904467e-06
1.120903505e-06
1.115164502e-06
1.10965518e-06
1.104346532e-06
1.099212092e-06
1.094227337e-06
1.08936919e-06
1.084615621e-06
1.079945325e-06
1.075337489e-06
1.070771596e-06
1.066227306e-06
1.061684367e-06
1.057122578e-06
1.052521791e-06
1.047861954e-06
1.043123182e-06
1.038285861e-06
1.033330784e-06
1.028239303e-06
1.022993508e-06
1.017576414e-06
1.01197217e-06
1.006166259e-06
1.00014572e-06
9.938993462e-07
9.874178925e-07
9.806942595e-07
9.737236661e-07
9.665037968e-07
9.590349244e-07
9.513200021e-07
9.43364722e-07
9.351775363e-07
9.267696419e-07
9.181549245e-07
9.093498617e-07
9.003733868e-07
8.912467148e-07
8.819931315e-07
8.726377498e-07
8.63207237e-07
8.537295175e-07
8.442334566e-07
8.347485306e-07
8.253044914e-07
8.159310281e-07
8.066574351e-07
7.975122928e-07
7.885231619e-07
7.797163049e-07
7.711164301e-07
7.627464673e-07
7.54627378e-07
7.467779976e-07
7.392149166e-07
7.319523956e-07
7.25002316e-07
7.183741661e-07
7.120750571e-07
7.061097688e-07
7.004808219e-07
6.95188573e-07
6.90231329e-07
6.856054785e-07
6.813056335e-07
6.773247833e-07
6.736544535e-07
6.702848681e-07
6.672051136e-07
6.644033011e-07
6.618667259e-07
6.595820215e-07
6.575353091e-07
6.557123383e-07
6.540986215e-07
6.526795598e-07
6.5144056e-07
6.503671434e-07
6.494450464e-07
6.486603123e-07
6.47999375e-07
6.474491351e-07
6.469970276e-07
6.466310828e-07
6.463399795e-07
6.461130899e-07
6.459405183e-07
6.458131314e-07
6.457225805e-07
6.456613166e-07
6.456225963e-07
6.456004793e-07
6.45589818e-07
6.455862376e-07
6.455861079e-07
6.455865069e-07
6.455851767e-07
6.455804722e-07
6.455713035e-07
6.455570736e-07
6.455376121e-07
6.455131063e-07
6.454840321e-07
6.454510857e-07
6.454151166e-07
6.453770657e-07
6.45337908e-07
6.452986015e-07
6.452600439e-07
6.452230368e-07
6.451882586e-07
6.451562456e-07
6.451273818e-07
6.451018961e-07
6.450798669e-07
6.450612329e-07
6.450458084e-07
6.450333037e-07
6.450233471e-07
6.450155089e-07
6.450093254e-07
6.450043223e-07
6.450000362e-07
6.449960331e-07
6.449919245e-07
6.449873794e-07
6.449821324e-07
6.449759883e-07
6.449688233e-07
6.44960582e-07
6.449512726e-07
6.449409593e-07
6.449297528e-07
6.449178001e-07
6.449052737e-07
6.448923606e-07
6.448792524e-07
6.448661359e-07
6.448531853e-07
6.448405559e-07
6.448283797e-07
6.448167621e-07
6.448057809e-07
6.447954864e-07
6.447859028e-07
6.447770309e-07
6.447688515e-07
6.447613285e-07
6.447544139e-07
6.44748051e-07
6.447421786e-07
6.447367342e-07
6.447316569e-07
6.447268898e-07
6.447223816e-07
6.447180877e-07
6.447139706e-07
6.447100002e-07
6.447061535e-07
6.447024137e-07
6.446987697e-07
6.446952151e-07
6.446917473e-07
6.446883667e-07
6.44685076e-07
6.446818795e-07
6.44678783e-07
6.446757929e-07
6.446729166e-07
6.446701621e-07
6.44667538e-07
6.446650535e-07
6.446627185e-07
6.446605432e-07
6.446585386e-07
6.446567155e-07
6.446550852e-07
6.446536583e-07
6.44652445e-07
6.446514541e-07
6.446506933e-07
6.446501681e-07
6.446498818e-07
6.446498352e-07
6.446500261e-07
6.446504492e-07
6.446510962e-07
6.446519556e-07
6.446530129e-07
6.446542506e-07
6.446556488e-07
6.446571851e-07
6.446588354e-07
6.446605739e-07
6.446623739e-07
6.446642079e-07
6.446660486e-07
6.446678686e-07
6.446696415e-07
6.446713418e-07
6.446729457e-07
6.446744311e-07
6.446757778e-07
6.446769682e-07
6.446779871e-07
6.446788218e-07
6.446794623e-07
6.446799016e-07
6.446801351e-07
6.446801611e-07
6.446799803e-07
6.446795959e-07
6.446790133e-07
6.4467824e-07
6.446772851e-07
6.446761596e-07
6.446748757e-07
6.446734466e-07
6.446718867e-07
6.446702106e-07
6.446684336e-07
6.446665712e-07
6.44664639e-07
6.446626522e-07
6.44660626e-07
6.446585751e-07
6.446565137e-07
6.446544554e-07
6.446524132e-07
6.446503992e-07
6.446484246e-07
6.446465001e-07
6.446446352e-07
6.446428385e-07
6.446411176e-07
6.446394794e-07
6.446379294e-07
6.446364724e-07
6.446351122e-07
6.446338514e-07
6.446326921e-07
6.446316355e-07
6.446306837e-07
6.446298433e-07
6.446291396e-07
6.446286606e-07
)
;

boundaryField
{
    inlet
    {
        type            fixedValue;
        value           uniform 0;
    }
    outlet
    {
        type            zeroGradient;
    }
    wall
    {
        type            empty;
    }
}


// ************************************************************************* //
