/*--------------------------------*- C++ -*----------------------------------*\
  =========                 |
  \\      /  F ield         | OpenFOAM: The Open Source CFD Toolbox
   \\    /   O peration     | Website:  https://openfoam.org
    \\  /    A nd           | Version:  7
     \\/     M anipulation  |
\*---------------------------------------------------------------------------*/
FoamFile
{
    version     2.0;
    format      ascii;
    class       volScalarField;
    location    "0.000558243009";
    object      mixAlpha;
}
// * * * * * * * * * * * * * * * * * * * * * * * * * * * * * * * * * * * * * //

dimensions      [1 -1 -1 0 0 0 0];

internalField   nonuniform List<scalar> 
1500
(
2.527278615e-05
2.511829509e-05
2.490059341e-05
2.469558331e-05
2.45487279e-05
2.446297656e-05
2.442053985e-05
2.440230369e-05
2.439537122e-05
2.439298862e-05
2.439221209e-05
2.439193637e-05
2.439179941e-05
2.439169925e-05
2.439161356e-05
2.439154004e-05
2.439147923e-05
2.43914307e-05
2.439139292e-05
2.439136402e-05
2.439134236e-05
2.439132676e-05
2.439131649e-05
2.439131105e-05
2.439130996e-05
2.439131261e-05
2.439131823e-05
2.439132587e-05
2.439133455e-05
2.439134336e-05
2.439135149e-05
2.439135836e-05
2.439136359e-05
2.439136698e-05
2.439136847e-05
2.439136815e-05
2.439136615e-05
2.439136268e-05
2.439135795e-05
2.439135222e-05
2.439134571e-05
2.439133869e-05
2.439133138e-05
2.4391324e-05
2.439131672e-05
2.439130968e-05
2.439130297e-05
2.439129664e-05
2.439129068e-05
2.439128509e-05
2.43912798e-05
2.439127476e-05
2.439126992e-05
2.439126524e-05
2.439126068e-05
2.439125625e-05
2.439125195e-05
2.439124783e-05
2.439124393e-05
2.439124032e-05
2.439123708e-05
2.43912343e-05
2.439123205e-05
2.439123042e-05
2.439122949e-05
2.439122931e-05
2.439122996e-05
2.439123145e-05
2.43912338e-05
2.439123701e-05
2.439124105e-05
2.439124586e-05
2.439125138e-05
2.43912575e-05
2.439126412e-05
2.439127111e-05
2.439127832e-05
2.439128561e-05
2.439129284e-05
2.439129985e-05
2.439130651e-05
2.439131269e-05
2.439131826e-05
2.439132313e-05
2.43913272e-05
2.439133042e-05
2.439133275e-05
2.439133415e-05
2.439133462e-05
2.439133417e-05
2.439133285e-05
2.43913307e-05
2.439132778e-05
2.439132417e-05
2.439131996e-05
2.439131525e-05
2.439131015e-05
2.439130476e-05
2.439129918e-05
2.439129352e-05
2.439128788e-05
2.439128235e-05
2.439127701e-05
2.439127191e-05
2.439126713e-05
2.439126268e-05
2.439125859e-05
2.439125486e-05
2.439125148e-05
2.439124843e-05
2.439124566e-05
2.439124313e-05
2.43912408e-05
2.43912386e-05
2.439123649e-05
2.439123442e-05
2.439123235e-05
2.439123024e-05
2.439122808e-05
2.439122584e-05
2.439122353e-05
2.439122116e-05
2.439121874e-05
2.439121629e-05
2.439121384e-05
2.439121143e-05
2.439120909e-05
2.439120684e-05
2.439120473e-05
2.439120279e-05
2.439120103e-05
2.439119948e-05
2.439119815e-05
2.439119707e-05
2.439119625e-05
2.439119569e-05
2.439119542e-05
2.439119543e-05
2.439119575e-05
2.439119638e-05
2.439119735e-05
2.439119866e-05
2.439120032e-05
2.439120236e-05
2.439120478e-05
2.439120758e-05
2.439121078e-05
2.439121437e-05
2.439121833e-05
2.439122266e-05
2.439122732e-05
2.439123229e-05
2.439123753e-05
2.439124299e-05
2.439124862e-05
2.439125438e-05
2.439126019e-05
2.439126601e-05
2.439127178e-05
2.439127744e-05
2.439128294e-05
2.439128823e-05
2.439129327e-05
2.439129801e-05
2.439130242e-05
2.439130647e-05
2.439131014e-05
2.439131339e-05
2.439131622e-05
2.43913186e-05
2.439132051e-05
2.439132194e-05
2.439132287e-05
2.43913233e-05
2.439132322e-05
2.439132261e-05
2.439132148e-05
2.439131983e-05
2.439131768e-05
2.439131503e-05
2.439131192e-05
2.43913084e-05
2.43913045e-05
2.43913003e-05
2.439129588e-05
2.439129134e-05
2.439128677e-05
2.43912823e-05
2.439127806e-05
2.439127418e-05
2.439127078e-05
2.439126799e-05
2.439126592e-05
2.439126466e-05
2.439126429e-05
2.439126483e-05
2.439126632e-05
2.439126873e-05
2.439127203e-05
2.439127618e-05
2.439128111e-05
2.439128676e-05
2.439129309e-05
2.439130005e-05
2.439130759e-05
2.439131569e-05
2.439132429e-05
2.439133334e-05
2.439134272e-05
2.439135227e-05
2.439136178e-05
2.439137095e-05
2.439137942e-05
2.43913868e-05
2.439139271e-05
2.43913968e-05
2.439139886e-05
2.439139883e-05
2.439139692e-05
2.439139361e-05
2.439138969e-05
2.439138626e-05
2.439138466e-05
2.439138639e-05
2.439139293e-05
2.43914056e-05
2.439142536e-05
2.439145257e-05
2.439148684e-05
2.439152694e-05
2.439157068e-05
2.439161502e-05
2.439165622e-05
2.439169015e-05
2.43917127e-05
2.439172029e-05
2.439171041e-05
2.439168224e-05
2.439163708e-05
2.439157881e-05
2.4391514e-05
2.439145185e-05
2.439140384e-05
2.439138292e-05
2.439140253e-05
2.439147512e-05
2.439161019e-05
2.43918113e-05
2.439207008e-05
2.439235062e-05
2.439245443e-05
2.439247923e-05
2.439250439e-05
2.439252984e-05
2.439255557e-05
2.439258155e-05
2.439260778e-05
2.439263424e-05
2.439266094e-05
2.439268787e-05
2.439271502e-05
2.439274239e-05
2.439276997e-05
2.439279777e-05
2.439282576e-05
2.439285395e-05
2.439288232e-05
2.439291088e-05
2.439293961e-05
2.439296851e-05
2.439299756e-05
2.439302677e-05
2.439305612e-05
2.439308561e-05
2.439311523e-05
2.439314497e-05
2.439317481e-05
2.439320476e-05
2.439323481e-05
2.439326493e-05
2.439329513e-05
2.43933254e-05
2.439335572e-05
2.439338609e-05
2.43934165e-05
2.439344693e-05
2.439347737e-05
2.439350782e-05
2.439353827e-05
2.439356869e-05
2.439359909e-05
2.439362945e-05
2.439365976e-05
2.439369001e-05
2.439372018e-05
2.439375026e-05
2.439378025e-05
2.439381013e-05
2.439383988e-05
2.43938695e-05
2.439389897e-05
2.439392827e-05
2.439395741e-05
2.439398635e-05
2.439401509e-05
2.439404362e-05
2.439407192e-05
2.439409998e-05
2.439412778e-05
2.439415532e-05
2.439418256e-05
2.439420951e-05
2.439423615e-05
2.439426246e-05
2.439428842e-05
2.439431403e-05
2.439433927e-05
2.439436412e-05
2.439438857e-05
2.439441261e-05
2.439443621e-05
2.439445936e-05
2.439448206e-05
2.439450427e-05
2.439452599e-05
2.43945472e-05
2.439456789e-05
2.439458804e-05
2.439460763e-05
2.439462665e-05
2.439464508e-05
2.439466291e-05
2.439468013e-05
2.439469671e-05
2.439471263e-05
2.43947279e-05
2.439474248e-05
2.439475636e-05
2.439476953e-05
2.439478198e-05
2.439479368e-05
2.439480462e-05
2.439481478e-05
2.439482416e-05
2.439483273e-05
2.439484048e-05
2.439484739e-05
2.439485345e-05
2.439485865e-05
2.439486296e-05
2.439486638e-05
2.439486889e-05
2.439487048e-05
2.439487112e-05
2.439487082e-05
2.439486954e-05
2.439486729e-05
2.439486404e-05
2.439485978e-05
2.43948545e-05
2.439484819e-05
2.439484083e-05
2.439483242e-05
2.439482293e-05
2.439481235e-05
2.439480069e-05
2.439478791e-05
2.439477402e-05
2.439475899e-05
2.439474283e-05
2.439472552e-05
2.439470704e-05
2.43946874e-05
2.439466658e-05
2.439464457e-05
2.439462136e-05
2.439459695e-05
2.439457132e-05
2.439454447e-05
2.43945164e-05
2.439448709e-05
2.439445654e-05
2.439442474e-05
2.439439169e-05
2.439435739e-05
2.439432182e-05
2.439428499e-05
2.439424688e-05
2.439420751e-05
2.439416686e-05
2.439412494e-05
2.439408173e-05
2.439403725e-05
2.439399149e-05
2.439394445e-05
2.439389612e-05
2.439384653e-05
2.439379565e-05
2.43937435e-05
2.439369009e-05
2.43936354e-05
2.439357945e-05
2.439352225e-05
2.439346379e-05
2.439340409e-05
2.439334315e-05
2.439328098e-05
2.439321758e-05
2.439315297e-05
2.439308716e-05
2.439302015e-05
2.439295195e-05
2.439288259e-05
2.439281207e-05
2.43927404e-05
2.43926676e-05
2.439259368e-05
2.439251866e-05
2.439244255e-05
2.439236538e-05
2.439228715e-05
2.43922079e-05
2.439212763e-05
2.439204636e-05
2.439196413e-05
2.439188095e-05
2.439179684e-05
2.439171183e-05
2.439162594e-05
2.439153919e-05
2.439145162e-05
2.439136325e-05
2.439127411e-05
2.439118422e-05
2.439109362e-05
2.439100233e-05
2.43909104e-05
2.439081784e-05
2.43907247e-05
2.4390631e-05
2.439053679e-05
2.439044209e-05
2.439034695e-05
2.439025141e-05
2.439015549e-05
2.439005925e-05
2.438996272e-05
2.438986594e-05
2.438976896e-05
2.438967182e-05
2.438957456e-05
2.438947723e-05
2.438937988e-05
2.438928254e-05
2.438918528e-05
2.438908814e-05
2.438899117e-05
2.438889441e-05
2.438879793e-05
2.438870178e-05
2.4388606e-05
2.438851066e-05
2.438841581e-05
2.43883215e-05
2.43882278e-05
2.438813475e-05
2.438804244e-05
2.43879509e-05
2.438786021e-05
2.438777042e-05
2.43876816e-05
2.438759382e-05
2.438750714e-05
2.438742162e-05
2.438733733e-05
2.438725435e-05
2.438717273e-05
2.438709255e-05
2.438701389e-05
2.438693681e-05
2.438686138e-05
2.438678769e-05
2.438671579e-05
2.438664578e-05
2.438657772e-05
2.43865117e-05
2.43864478e-05
2.438638608e-05
2.438632664e-05
2.438626955e-05
2.438621491e-05
2.438616278e-05
2.438611326e-05
2.438606643e-05
2.438602239e-05
2.43859812e-05
2.438594298e-05
2.43859078e-05
2.438587576e-05
2.438584695e-05
2.438582146e-05
2.438579939e-05
2.438578084e-05
2.438576591e-05
2.438575468e-05
2.438574727e-05
2.438574378e-05
2.43857443e-05
2.438574896e-05
2.438575785e-05
2.438577108e-05
2.438578877e-05
2.438581103e-05
2.438583798e-05
2.438586973e-05
2.438590641e-05
2.438594814e-05
2.438599505e-05
2.438604725e-05
2.438610489e-05
2.438616809e-05
2.438623697e-05
2.438631166e-05
2.438639229e-05
2.438647899e-05
2.438657189e-05
2.43866711e-05
2.438677677e-05
2.4386889e-05
2.438700793e-05
2.438713368e-05
2.438726639e-05
2.438740617e-05
2.438755316e-05
2.438770748e-05
2.438786926e-05
2.438803865e-05
2.438821576e-05
2.438840074e-05
2.438859372e-05
2.438879484e-05
2.438900425e-05
2.438922208e-05
2.438944849e-05
2.438968362e-05
2.438992763e-05
2.439018066e-05
2.439044287e-05
2.439071442e-05
2.439099548e-05
2.43912862e-05
2.439158675e-05
2.43918973e-05
2.439221803e-05
2.439254912e-05
2.439289073e-05
2.439324306e-05
2.439360629e-05
2.439398061e-05
2.439436622e-05
2.439476332e-05
2.439517211e-05
2.439559281e-05
2.439602561e-05
2.439647076e-05
2.439692847e-05
2.439739896e-05
2.439788249e-05
2.43983793e-05
2.439888963e-05
2.439941376e-05
2.439995193e-05
2.440050445e-05
2.440107158e-05
2.440165363e-05
2.440225091e-05
2.440286374e-05
2.440349245e-05
2.440413738e-05
2.440479891e-05
2.44054774e-05
2.440617326e-05
2.440688689e-05
2.440761874e-05
2.440836926e-05
2.440913894e-05
2.440992829e-05
2.441073784e-05
2.441156817e-05
2.441241989e-05
2.441329365e-05
2.441419013e-05
2.441511007e-05
2.441605427e-05
2.441702357e-05
2.441801889e-05
2.44190412e-05
2.442009157e-05
2.442117115e-05
2.442228118e-05
2.442342301e-05
2.442459812e-05
2.44258081e-05
2.442705471e-05
2.442833986e-05
2.442966566e-05
2.443103439e-05
2.44324486e-05
2.443391105e-05
2.443542483e-05
2.443699331e-05
2.443862023e-05
2.444030973e-05
2.444206637e-05
2.444389524e-05
2.444580196e-05
2.444779277e-05
2.444987462e-05
2.445205524e-05
2.445434321e-05
2.44567481e-05
2.445928057e-05
2.446195252e-05
2.44647772e-05
2.446776943e-05
2.447094571e-05
2.447432452e-05
2.447792647e-05
2.448177462e-05
2.448589474e-05
2.449031564e-05
2.449506955e-05
2.450019252e-05
2.450572488e-05
2.451171175e-05
2.451820361e-05
2.452525694e-05
2.453293493e-05
2.454130828e-05
2.455045605e-05
2.456046667e-05
2.457143903e-05
2.458348365e-05
2.459672406e-05
2.461129824e-05
2.462736024e-05
2.4645082e-05
2.466465528e-05
2.468629382e-05
2.471023567e-05
2.473674572e-05
2.476611845e-05
2.479868087e-05
2.483479563e-05
2.487486442e-05
2.49193314e-05
2.496868688e-05
2.502347101e-05
2.508427762e-05
2.515175788e-05
2.522662396e-05
2.530965235e-05
2.540168684e-05
2.55036409e-05
2.561649933e-05
2.574131889e-05
2.587922777e-05
2.60314235e-05
2.619916919e-05
2.638378771e-05
2.658665367e-05
2.680918295e-05
2.705281965e-05
2.731902044e-05
2.76092364e-05
2.792489242e-05
2.82673646e-05
2.863795611e-05
2.903787206e-05
2.946819414e-05
2.992985601e-05
3.042362011e-05
3.095005719e-05
3.150952926e-05
3.210217705e-05
3.272791289e-05
3.338641979e-05
3.407715735e-05
3.479937526e-05
3.555213496e-05
3.633433938e-05
3.714477185e-05
3.798214394e-05
3.884515295e-05
3.973255026e-05
4.064322284e-05
4.15762973e-05
4.25309286e-05
4.350792469e-05
4.450604314e-05
4.553155525e-05
4.658635688e-05
4.767493301e-05
4.878127554e-05
4.99240461e-05
5.111017542e-05
5.234798215e-05
5.364710142e-05
5.488915324e-05
5.633481036e-05
5.78225187e-05
5.935240067e-05
6.092429454e-05
6.253930153e-05
6.421816425e-05
6.591152864e-05
6.763672246e-05
6.939020172e-05
7.117959688e-05
7.296072906e-05
7.47370305e-05
7.649796211e-05
7.823081355e-05
7.992581494e-05
8.157329225e-05
8.31669255e-05
8.470075662e-05
8.616905737e-05
8.756624119e-05
8.888882454e-05
9.012701851e-05
9.128254278e-05
9.234707476e-05
9.332414009e-05
9.421614597e-05
9.502716421e-05
9.576262198e-05
9.643127856e-05
9.704061367e-05
9.75932941e-05
9.809532002e-05
9.855240836e-05
9.896973244e-05
9.935192133e-05
9.970310924e-05
0.0001000269432
0.0001003264625
0.0001006021325
0.0001008590127
0.0001011002444
0.0001013259505
0.0001015377335
0.0001017369835
0.0001019248841
0.0001021024493
0.0001022705128
0.0001024299268
0.000102581325
0.0001027253079
0.000102862414
0.000102993127
0.0001031178839
0.0001032370805
0.0001033510768
0.0001034602014
0.0001035647547
0.0001036650125
0.0001037612284
0.000103853636
0.0001039424514
0.0001040278744
0.0001041100904
0.0001041892716
0.0001042655783
0.0001043391599
0.0001044101557
0.000104478696
0.0001045449027
0.0001046088899
0.0001046707646
0.0001047306272
0.0001047885721
0.000104844688
0.0001048990585
0.000104951762
0.0001050028729
0.000105052461
0.0001051005922
0.000105147329
0.0001051927304
0.000105236852
0.0001052797467
0.0001053214644
0.0001053620525
0.000105401556
0.0001054400176
0.0001054774776
0.0001055139745
0.0001055495449
0.0001055842236
0.0001056180437
0.0001056510365
0.0001056832322
0.0001057146593
0.000105745345
0.0001057753155
0.0001058045954
0.0001058332085
0.0001058611774
0.0001058885237
0.0001059152682
0.0001059414306
0.0001059670298
0.0001059920841
0.0001060166107
0.0001060406262
0.0001060641467
0.0001060871875
0.0001061097631
0.0001061318877
0.0001061535748
0.0001061748374
0.0001061956879
0.0001062161384
0.0001062362004
0.0001062558849
0.0001062752027
0.0001062941639
0.0001063127785
0.0001063310561
0.0001063490057
0.0001063666362
0.0001063839561
0.0001064009737
0.0001064176969
0.0001064341333
0.0001064502904
0.0001064661751
0.0001064817945
0.0001064971552
0.0001065122636
0.0001065271259
0.0001065417482
0.0001065561362
0.0001065702956
0.0001065842317
0.00010659795
0.0001066114554
0.0001066247529
0.0001066378472
0.0001066507432
0.0001066634451
0.0001066759573
0.0001066882842
0.0001067004297
0.0001067123979
0.0001067241925
0.0001067358174
0.0001067472762
0.0001067585723
0.0001067697093
0.0001067806904
0.0001067915188
0.0001068021978
0.0001068127303
0.0001068231193
0.0001068333677
0.0001068434783
0.0001068534539
0.000106863297
0.0001068730103
0.0001068825962
0.0001068920573
0.0001069013958
0.0001069106142
0.0001069197147
0.0001069286994
0.0001069375706
0.0001069463303
0.0001069549805
0.0001069635232
0.0001069719604
0.0001069802939
0.0001069885257
0.0001069966573
0.0001070046908
0.0001070126276
0.0001070204696
0.0001070282182
0.0001070358752
0.000107043442
0.0001070509202
0.0001070583113
0.0001070656166
0.0001070728376
0.0001070799757
0.0001070870322
0.0001070940084
0.0001071009057
0.0001071077252
0.0001071144681
0.0001071211358
0.0001071277293
0.0001071342499
0.0001071406985
0.0001071470764
0.0001071533845
0.000107159624
0.0001071657958
0.000107171901
0.0001071779406
0.0001071839155
0.0001071898266
0.0001071956748
0.0001072014612
0.0001072071865
0.0001072128516
0.0001072184574
0.0001072240046
0.0001072294942
0.0001072349268
0.0001072403033
0.0001072456245
0.000107250891
0.0001072561037
0.0001072612632
0.0001072663702
0.0001072714254
0.0001072764296
0.0001072813833
0.0001072862872
0.0001072911419
0.0001072959482
0.0001073007065
0.0001073054175
0.0001073100818
0.0001073146999
0.0001073192725
0.0001073238
0.000107328283
0.0001073327221
0.0001073371178
0.0001073414705
0.0001073457809
0.0001073500493
0.0001073542764
0.0001073584624
0.0001073626081
0.0001073667137
0.0001073707797
0.0001073748066
0.0001073787949
0.0001073827449
0.0001073866571
0.0001073905318
0.0001073943696
0.0001073981707
0.0001074019356
0.0001074056647
0.0001074093583
0.0001074130168
0.0001074166406
0.00010742023
0.0001074237855
0.0001074273072
0.0001074307956
0.0001074342511
0.0001074376738
0.0001074410642
0.0001074444226
0.0001074477493
0.0001074510446
0.0001074543088
0.0001074575422
0.000107460745
0.0001074639177
0.0001074670603
0.0001074701734
0.000107473257
0.0001074763115
0.0001074793372
0.0001074823342
0.0001074853029
0.0001074882435
0.0001074911563
0.0001074940415
0.0001074968993
0.0001074997299
0.0001075025337
0.0001075053109
0.0001075080616
0.000107510786
0.0001075134845
0.0001075161572
0.0001075188044
0.0001075214261
0.0001075240228
0.0001075265944
0.0001075291413
0.0001075316637
0.0001075341617
0.0001075366355
0.0001075390853
0.0001075415114
0.0001075439138
0.0001075462928
0.0001075486485
0.0001075509811
0.0001075532908
0.0001075555778
0.0001075578422
0.0001075600842
0.0001075623039
0.0001075645015
0.0001075666772
0.0001075688312
0.0001075709635
0.0001075730743
0.0001075751638
0.0001075772322
0.0001075792795
0.0001075813059
0.0001075833116
0.0001075852967
0.0001075872613
0.0001075892056
0.0001075911298
0.0001075930338
0.0001075949179
0.0001075967823
0.0001075986269
0.000107600452
0.0001076022577
0.0001076040441
0.0001076058113
0.0001076075595
0.0001076092887
0.0001076109992
0.0001076126909
0.000107614364
0.0001076160187
0.000107617655
0.0001076192731
0.000107620873
0.0001076224549
0.0001076240189
0.0001076255651
0.0001076270935
0.0001076286044
0.0001076300977
0.0001076315737
0.0001076330324
0.0001076344738
0.0001076358982
0.0001076373056
0.000107638696
0.0001076400697
0.0001076414266
0.000107642767
0.0001076440908
0.0001076453982
0.0001076466892
0.000107647964
0.0001076492226
0.0001076504652
0.0001076516918
0.0001076529025
0.0001076540974
0.0001076552766
0.0001076564402
0.0001076575882
0.0001076587208
0.000107659838
0.0001076609399
0.0001076620266
0.0001076630981
0.0001076641547
0.0001076651962
0.0001076662229
0.0001076672348
0.000107668232
0.0001076692145
0.0001076701825
0.000107671136
0.0001076720751
0.0001076729999
0.0001076739104
0.0001076748068
0.000107675689
0.0001076765573
0.0001076774116
0.000107678252
0.0001076790786
0.0001076798916
0.0001076806908
0.0001076814766
0.0001076822488
0.0001076830076
0.0001076837531
0.0001076844853
0.0001076852042
0.0001076859101
0.0001076866029
0.0001076872827
0.0001076879497
0.0001076886037
0.0001076892451
0.0001076898737
0.0001076904897
0.0001076910931
0.0001076916841
0.0001076922627
0.0001076928289
0.0001076933829
0.0001076939246
0.0001076944543
0.0001076949719
0.0001076954775
0.0001076959712
0.000107696453
0.0001076969231
0.0001076973815
0.0001076978282
0.0001076982634
0.0001076986871
0.0001076990994
0.0001076995003
0.00010769989
0.0001077002684
0.0001077006357
0.000107700992
0.0001077013372
0.0001077016715
0.000107701995
0.0001077023077
0.0001077026097
0.000107702901
0.0001077031817
0.000107703452
0.0001077037118
0.0001077039613
0.0001077042004
0.0001077044294
0.0001077046482
0.000107704857
0.0001077050557
0.0001077052445
0.0001077054235
0.0001077055927
0.0001077057522
0.000107705902
0.0001077060423
0.0001077061731
0.0001077062944
0.0001077064064
0.0001077065092
0.0001077066028
0.0001077066872
0.0001077067626
0.000107706829
0.0001077068865
0.0001077069352
0.0001077069752
0.0001077070064
0.0001077070291
0.0001077070433
0.000107707049
0.0001077070464
0.0001077070355
0.0001077070163
0.0001077069891
0.0001077069538
0.0001077069105
0.0001077068593
0.0001077068003
0.0001077067336
0.0001077066592
0.0001077065773
0.0001077064878
0.000107706391
0.0001077062868
0.0001077061754
0.0001077060568
0.0001077059311
0.0001077057985
0.0001077056589
0.0001077055125
0.0001077053594
0.0001077051996
0.0001077050332
0.0001077048604
0.0001077046812
0.0001077044957
0.0001077043039
0.0001077041061
0.0001077039022
0.0001077036924
0.0001077034767
0.0001077032553
0.0001077030282
0.0001077027956
0.0001077025574
0.0001077023139
0.0001077020652
0.0001077018112
0.0001077015522
0.0001077012882
0.0001077010193
0.0001077007456
0.0001077004672
0.0001077001843
0.0001076998969
0.0001076996051
0.0001076993091
0.0001076990089
0.0001076987047
0.0001076983966
0.0001076980846
0.0001076977689
0.0001076974496
0.0001076971269
0.0001076968007
0.0001076964713
0.0001076961388
0.0001076958032
0.0001076954648
0.0001076951236
0.0001076947798
0.0001076944334
0.0001076940846
0.0001076937336
0.0001076933805
0.0001076930253
0.0001076926684
0.0001076923097
0.0001076919495
0.0001076915879
0.000107691225
0.000107690861
0.000107690496
0.0001076901301
0.0001076897633
0.0001076893955
0.0001076890265
0.0001076886561
0.0001076882836
0.0001076879082
0.0001076875285
0.0001076871425
0.0001076867479
0.0001076834602
0.0001076782919
0.0001076738007
0.0001076700254
0.0001076670031
0.0001076647569
0.0001076633001
0.0001076626374
0.0001076627647
0.0001076636697
0.0001076653325
0.0001076677266
0.0001076708195
0.0001076745736
0.0001076789468
0.0001076838935
0.0001076893653
0.0001076953114
0.0001077016797
0.0001077084172
0.0001077154709
0.0001077227881
0.000107730317
0.0001077380071
0.00010774581
0.0001077536791
0.0001077615706
0.0001077694432
0.0001077772586
0.0001077849814
0.0001077925796
0.0001078000241
0.0001078072891
0.0001078143518
0.0001078211926
0.0001078277946
0.000107834144
0.0001078402294
0.0001078460422
0.000107851576
0.0001078568264
0.0001078617912
0.00010786647
0.0001078708641
0.000107874976
0.0001078788099
0.0001078823708
0.0001078856651
0.0001078886997
0.0001078914826
0.0001078940223
0.0001078963278
0.0001078984089
0.0001079002755
0.0001079019379
0.0001079034067
0.0001079046927
0.000107905807
0.0001079067607
0.0001079075651
0.0001079082317
0.0001079087718
0.0001079091972
0.0001079095193
0.0001079097499
0.0001079099005
0.0001079099829
0.0001079100085
0.0001079099889
0.0001079099352
0.0001079098586
0.0001079097697
0.0001079096786
0.0001079095952
0.0001079095284
0.0001079094863
0.0001079094763
0.0001079095045
0.0001079095761
0.0001079096947
0.000107909863
0.0001079100819
0.000107910351
0.0001079106685
0.0001079110313
0.0001079114348
0.0001079118734
0.0001079123403
0.0001079128279
0.0001079133278
0.0001079138315
0.0001079143299
0.0001079148142
0.000107915276
0.0001079157072
0.0001079161008
0.0001079164505
0.0001079167512
0.0001079169993
0.0001079171922
0.0001079173292
0.0001079174104
0.0001079174378
0.0001079174142
0.0001079173437
0.0001079172313
0.0001079170828
0.0001079169044
0.0001079167027
0.0001079164843
0.0001079162557
0.0001079160232
0.0001079157923
0.0001079155681
0.0001079153548
0.0001079151558
0.0001079149737
0.00010791481
0.0001079146655
0.0001079145402
0.0001079144333
0.0001079143435
0.0001079142687
0.0001079142069
0.0001079141555
0.000107914112
0.0001079140738
0.0001079140385
0.0001079140038
0.0001079139678
0.0001079139289
0.0001079138859
0.000107913838
0.0001079137847
0.0001079137259
0.0001079136618
0.000107913593
0.0001079135201
0.000107913444
0.0001079133657
0.0001079132863
0.0001079132067
0.000107913128
0.000107913051
0.0001079129764
0.000107912905
0.0001079128372
0.0001079127733
0.0001079127135
0.0001079126578
0.0001079126063
0.0001079125587
0.0001079125147
0.0001079124742
0.0001079124367
0.0001079124019
0.0001079123695
0.0001079123391
0.0001079123105
0.0001079122833
0.0001079122574
0.0001079122326
0.0001079122087
0.0001079121856
0.0001079121632
0.0001079121415
0.0001079121205
0.0001079121001
0.0001079120804
0.0001079120614
0.000107912043
0.0001079120254
0.0001079120085
0.0001079119924
0.0001079119772
0.0001079119629
0.0001079119495
0.0001079119372
0.0001079119259
0.0001079119157
0.0001079119067
0.0001079118989
0.0001079118925
0.0001079118873
0.0001079118836
0.0001079118812
0.0001079118803
0.0001079118807
0.0001079118826
0.0001079118858
0.0001079118904
0.0001079118962
0.0001079119032
0.0001079119112
0.0001079119202
0.00010791193
0.0001079119405
0.0001079119515
0.000107911963
0.0001079119746
0.0001079119864
0.000107911998
0.0001079120095
0.0001079120205
0.0001079120311
0.000107912041
0.0001079120502
0.0001079120586
0.0001079120661
0.0001079120725
0.0001079120779
0.0001079120823
0.0001079120855
0.0001079120876
0.0001079120886
0.0001079120886
0.0001079120874
0.0001079120853
0.0001079120822
0.0001079120782
0.0001079120733
0.0001079120677
0.0001079120614
0.0001079120544
0.000107912047
0.0001079120391
0.0001079120307
0.0001079120221
0.0001079120133
0.0001079120043
0.0001079119952
0.0001079119861
0.000107911977
0.000107911968
0.0001079119591
0.0001079119505
0.000107911942
0.0001079119338
0.0001079119259
0.0001079119182
0.0001079119109
0.000107911904
0.0001079118974
0.0001079118911
0.0001079118852
0.0001079118796
0.0001079118744
0.0001079118696
0.0001079118653
0.0001079118621
)
;

boundaryField
{
    inlet
    {
        type            calculated;
        value           uniform 2.532664292e-05;
    }
    outlet
    {
        type            calculated;
        value           uniform 0.0001079118621;
    }
    wall
    {
        type            empty;
    }
}


// ************************************************************************* //
