/*--------------------------------*- C++ -*----------------------------------*\
  =========                 |
  \\      /  F ield         | OpenFOAM: The Open Source CFD Toolbox
   \\    /   O peration     | Website:  https://openfoam.org
    \\  /    A nd           | Version:  7
     \\/     M anipulation  |
\*---------------------------------------------------------------------------*/
FoamFile
{
    version     2.0;
    format      ascii;
    class       volScalarField;
    location    "0.000558243009";
    object      mixMu;
}
// * * * * * * * * * * * * * * * * * * * * * * * * * * * * * * * * * * * * * //

dimensions      [1 -1 -1 0 0 0 0];

internalField   nonuniform List<scalar> 
1500
(
1.801273754e-05
1.791657417e-05
1.777878326e-05
1.764658142e-05
1.755040158e-05
1.749363119e-05
1.746533833e-05
1.745312024e-05
1.744845489e-05
1.744684107e-05
1.74463068e-05
1.744610903e-05
1.744600411e-05
1.7445924e-05
1.744585446e-05
1.744579456e-05
1.7445745e-05
1.744570542e-05
1.744567462e-05
1.744565105e-05
1.744563338e-05
1.744562067e-05
1.744561229e-05
1.744560785e-05
1.744560696e-05
1.744560913e-05
1.744561371e-05
1.744561994e-05
1.744562702e-05
1.74456342e-05
1.744564083e-05
1.744564643e-05
1.74456507e-05
1.744565346e-05
1.744565468e-05
1.744565441e-05
1.744565279e-05
1.744564996e-05
1.74456461e-05
1.744564142e-05
1.744563612e-05
1.744563039e-05
1.744562443e-05
1.744561841e-05
1.744561248e-05
1.744560674e-05
1.744560127e-05
1.74455961e-05
1.744559125e-05
1.744558668e-05
1.744558237e-05
1.744557826e-05
1.744557432e-05
1.74455705e-05
1.744556678e-05
1.744556317e-05
1.744555966e-05
1.74455563e-05
1.744555312e-05
1.744555018e-05
1.744554754e-05
1.744554527e-05
1.744554343e-05
1.74455421e-05
1.744554134e-05
1.74455412e-05
1.744554173e-05
1.744554294e-05
1.744554486e-05
1.744554748e-05
1.744555077e-05
1.74455547e-05
1.744555919e-05
1.744556419e-05
1.744556959e-05
1.744557528e-05
1.744558116e-05
1.744558711e-05
1.744559301e-05
1.744559872e-05
1.744560416e-05
1.744560919e-05
1.744561373e-05
1.74456177e-05
1.744562103e-05
1.744562365e-05
1.744562555e-05
1.744562669e-05
1.744562707e-05
1.744562671e-05
1.744562563e-05
1.744562387e-05
1.744562149e-05
1.744561855e-05
1.744561512e-05
1.744561128e-05
1.744560712e-05
1.744560272e-05
1.744559817e-05
1.744559356e-05
1.744558896e-05
1.744558445e-05
1.744558009e-05
1.744557594e-05
1.744557204e-05
1.744556841e-05
1.744556508e-05
1.744556204e-05
1.744555928e-05
1.744555679e-05
1.744555453e-05
1.744555247e-05
1.744555057e-05
1.744554877e-05
1.744554705e-05
1.744554537e-05
1.744554368e-05
1.744554196e-05
1.74455402e-05
1.744553837e-05
1.744553649e-05
1.744553455e-05
1.744553258e-05
1.744553058e-05
1.744552859e-05
1.744552662e-05
1.744552471e-05
1.744552288e-05
1.744552116e-05
1.744551957e-05
1.744551814e-05
1.744551687e-05
1.744551579e-05
1.744551491e-05
1.744551424e-05
1.744551379e-05
1.744551356e-05
1.744551357e-05
1.744551383e-05
1.744551435e-05
1.744551514e-05
1.74455162e-05
1.744551756e-05
1.744551922e-05
1.74455212e-05
1.744552348e-05
1.744552609e-05
1.744552901e-05
1.744553225e-05
1.744553577e-05
1.744553958e-05
1.744554363e-05
1.74455479e-05
1.744555236e-05
1.744555695e-05
1.744556164e-05
1.744556638e-05
1.744557113e-05
1.744557583e-05
1.744558045e-05
1.744558493e-05
1.744558925e-05
1.744559335e-05
1.744559722e-05
1.744560082e-05
1.744560412e-05
1.744560711e-05
1.744560977e-05
1.744561207e-05
1.744561401e-05
1.744561557e-05
1.744561673e-05
1.744561749e-05
1.744561785e-05
1.744561778e-05
1.744561728e-05
1.744561636e-05
1.744561502e-05
1.744561326e-05
1.74456111e-05
1.744560857e-05
1.744560569e-05
1.744560251e-05
1.744559909e-05
1.744559549e-05
1.744559178e-05
1.744558806e-05
1.744558441e-05
1.744558095e-05
1.744557779e-05
1.744557501e-05
1.744557274e-05
1.744557105e-05
1.744557003e-05
1.744556972e-05
1.744557017e-05
1.744557138e-05
1.744557334e-05
1.744557603e-05
1.744557942e-05
1.744558344e-05
1.744558805e-05
1.744559321e-05
1.744559888e-05
1.744560504e-05
1.744561164e-05
1.744561865e-05
1.744562603e-05
1.744563368e-05
1.744564147e-05
1.744564922e-05
1.744565669e-05
1.74456636e-05
1.744566962e-05
1.744567444e-05
1.744567778e-05
1.744567946e-05
1.744567944e-05
1.744567788e-05
1.744567517e-05
1.744567198e-05
1.744566918e-05
1.744566788e-05
1.744566929e-05
1.744567462e-05
1.744568496e-05
1.744570107e-05
1.744572325e-05
1.74457512e-05
1.74457839e-05
1.744581956e-05
1.744585572e-05
1.744588931e-05
1.744591697e-05
1.744593535e-05
1.744594152e-05
1.744593344e-05
1.744591042e-05
1.744587353e-05
1.74458259e-05
1.744577287e-05
1.744572193e-05
1.744568239e-05
1.744566478e-05
1.744567999e-05
1.744573809e-05
1.744584675e-05
1.744600877e-05
1.744621722e-05
1.744644269e-05
1.744652514e-05
1.744654501e-05
1.744656517e-05
1.744658556e-05
1.744660617e-05
1.744662697e-05
1.744664797e-05
1.744666915e-05
1.744669052e-05
1.744671206e-05
1.744673377e-05
1.744675566e-05
1.744677771e-05
1.744679991e-05
1.744682228e-05
1.744684479e-05
1.744686744e-05
1.744689024e-05
1.744691316e-05
1.744693621e-05
1.744695938e-05
1.744698266e-05
1.744700604e-05
1.744702953e-05
1.744705311e-05
1.744707677e-05
1.744710051e-05
1.744712433e-05
1.74471482e-05
1.744717213e-05
1.744719611e-05
1.744722013e-05
1.744724419e-05
1.744726826e-05
1.744729235e-05
1.744731645e-05
1.744734054e-05
1.744736463e-05
1.744738869e-05
1.744741272e-05
1.744743672e-05
1.744746067e-05
1.744748456e-05
1.744750838e-05
1.744753212e-05
1.744755578e-05
1.744757934e-05
1.744760279e-05
1.744762612e-05
1.744764933e-05
1.744767239e-05
1.74476953e-05
1.744771805e-05
1.744774063e-05
1.744776303e-05
1.744778523e-05
1.744780722e-05
1.744782899e-05
1.744785054e-05
1.744787184e-05
1.744789289e-05
1.744791367e-05
1.744793417e-05
1.744795438e-05
1.74479743e-05
1.744799389e-05
1.744801316e-05
1.744803209e-05
1.744805066e-05
1.744806887e-05
1.744808671e-05
1.744810415e-05
1.744812118e-05
1.74481378e-05
1.744815399e-05
1.744816974e-05
1.744818503e-05
1.744819985e-05
1.744821419e-05
1.744822803e-05
1.744824136e-05
1.744825417e-05
1.744826645e-05
1.744827817e-05
1.744828934e-05
1.744829992e-05
1.744830992e-05
1.744831931e-05
1.744832809e-05
1.744833624e-05
1.744834375e-05
1.74483506e-05
1.744835678e-05
1.744836228e-05
1.744836708e-05
1.744837118e-05
1.744837455e-05
1.74483772e-05
1.744837909e-05
1.744838022e-05
1.744838058e-05
1.744838016e-05
1.744837894e-05
1.744837691e-05
1.744837405e-05
1.744837037e-05
1.744836583e-05
1.744836044e-05
1.744835418e-05
1.744834704e-05
1.7448339e-05
1.744833006e-05
1.744832021e-05
1.744830943e-05
1.744829771e-05
1.744828505e-05
1.744827143e-05
1.744825684e-05
1.744824128e-05
1.744822473e-05
1.744820718e-05
1.744818863e-05
1.744816906e-05
1.744814847e-05
1.744812685e-05
1.744810419e-05
1.744808048e-05
1.744805572e-05
1.74480299e-05
1.744800301e-05
1.744797504e-05
1.7447946e-05
1.744791586e-05
1.744788464e-05
1.744785231e-05
1.744781888e-05
1.744778435e-05
1.74477487e-05
1.744771194e-05
1.744767405e-05
1.744763505e-05
1.744759492e-05
1.744755367e-05
1.744751128e-05
1.744746777e-05
1.744742312e-05
1.744737735e-05
1.744733044e-05
1.744728241e-05
1.744723324e-05
1.744718294e-05
1.744713152e-05
1.744707897e-05
1.74470253e-05
1.744697051e-05
1.744691461e-05
1.744685759e-05
1.744679947e-05
1.744674025e-05
1.744667994e-05
1.744661854e-05
1.744655605e-05
1.744649249e-05
1.744642787e-05
1.744636218e-05
1.744629545e-05
1.744622769e-05
1.744615889e-05
1.744608907e-05
1.744601825e-05
1.744594644e-05
1.744587364e-05
1.744579987e-05
1.744572515e-05
1.744564949e-05
1.744557291e-05
1.744549541e-05
1.744541702e-05
1.744533776e-05
1.744525764e-05
1.744517667e-05
1.744509488e-05
1.744501229e-05
1.744492892e-05
1.744484478e-05
1.744475991e-05
1.744467431e-05
1.744458802e-05
1.744450105e-05
1.744441344e-05
1.74443252e-05
1.744423636e-05
1.744414694e-05
1.744405698e-05
1.744396649e-05
1.744387551e-05
1.744378407e-05
1.744369219e-05
1.74435999e-05
1.744350724e-05
1.744341423e-05
1.74433209e-05
1.74432273e-05
1.744313344e-05
1.744303937e-05
1.744294512e-05
1.744285071e-05
1.74427562e-05
1.744266161e-05
1.744256698e-05
1.744247234e-05
1.744237774e-05
1.744228321e-05
1.744218879e-05
1.744209452e-05
1.744200044e-05
1.744190659e-05
1.744181302e-05
1.744171975e-05
1.744162684e-05
1.744153433e-05
1.744144225e-05
1.744135067e-05
1.74412596e-05
1.744116912e-05
1.744107924e-05
1.744099004e-05
1.744090154e-05
1.744081379e-05
1.744072685e-05
1.744064076e-05
1.744055556e-05
1.744047132e-05
1.744038806e-05
1.744030585e-05
1.744022473e-05
1.744014475e-05
1.744006597e-05
1.743998843e-05
1.743991218e-05
1.743983728e-05
1.743976377e-05
1.743969172e-05
1.743962116e-05
1.743955216e-05
1.743948476e-05
1.743941903e-05
1.743935501e-05
1.743929275e-05
1.743923232e-05
1.743917377e-05
1.743911714e-05
1.743906251e-05
1.743900992e-05
1.743895943e-05
1.74389111e-05
1.743886498e-05
1.743882113e-05
1.743877962e-05
1.74387405e-05
1.743870383e-05
1.743866967e-05
1.743863809e-05
1.743860914e-05
1.74385829e-05
1.743855942e-05
1.743853877e-05
1.743852102e-05
1.743850624e-05
1.743849448e-05
1.743848581e-05
1.74384803e-05
1.7438478e-05
1.743847898e-05
1.74384833e-05
1.743849102e-05
1.743850218e-05
1.743851684e-05
1.743853505e-05
1.743855687e-05
1.743858234e-05
1.74386115e-05
1.743864441e-05
1.743868112e-05
1.743872165e-05
1.743876606e-05
1.743881439e-05
1.743886668e-05
1.743892297e-05
1.74389833e-05
1.743904771e-05
1.743911624e-05
1.743918893e-05
1.743926582e-05
1.743934694e-05
1.743943233e-05
1.743952202e-05
1.743961606e-05
1.743971447e-05
1.743981729e-05
1.743992455e-05
1.744003628e-05
1.744015251e-05
1.744027327e-05
1.74403986e-05
1.744052852e-05
1.744066305e-05
1.744080222e-05
1.744094607e-05
1.74410946e-05
1.744124786e-05
1.744140586e-05
1.744156861e-05
1.744173616e-05
1.744190851e-05
1.744208569e-05
1.744226772e-05
1.744245462e-05
1.744264642e-05
1.744284312e-05
1.744304476e-05
1.744325136e-05
1.744346294e-05
1.744367952e-05
1.744390113e-05
1.744412781e-05
1.744435957e-05
1.744459646e-05
1.74448385e-05
1.744508576e-05
1.744533826e-05
1.744559606e-05
1.744585923e-05
1.744612783e-05
1.744640193e-05
1.744668163e-05
1.744696702e-05
1.744725822e-05
1.744755536e-05
1.744785858e-05
1.744816805e-05
1.744848397e-05
1.744880655e-05
1.744913604e-05
1.744947273e-05
1.744981693e-05
1.745016902e-05
1.745052941e-05
1.745089857e-05
1.745127703e-05
1.745166541e-05
1.74520644e-05
1.745247476e-05
1.74528974e-05
1.745333329e-05
1.745378359e-05
1.745424955e-05
1.745473264e-05
1.745523446e-05
1.745575688e-05
1.745630195e-05
1.745687204e-05
1.745746978e-05
1.745809815e-05
1.745876051e-05
1.745946065e-05
1.746020284e-05
1.746099189e-05
1.74618332e-05
1.746273287e-05
1.746369776e-05
1.746473558e-05
1.746585503e-05
1.746706588e-05
1.746837911e-05
1.746980709e-05
1.74713637e-05
1.747306458e-05
1.747492728e-05
1.747697153e-05
1.747921949e-05
1.748169606e-05
1.74844292e-05
1.748745031e-05
1.749079461e-05
1.749450166e-05
1.749861583e-05
1.750318687e-05
1.750827059e-05
1.751392951e-05
1.752023371e-05
1.752726168e-05
1.753510126e-05
1.754385076e-05
1.755362012e-05
1.75645322e-05
1.757672426e-05
1.759034944e-05
1.760557856e-05
1.762260191e-05
1.764163133e-05
1.766290228e-05
1.768667625e-05
1.771324319e-05
1.774292409e-05
1.777607371e-05
1.781308341e-05
1.785438393e-05
1.790044832e-05
1.795179462e-05
1.800898856e-05
1.80726459e-05
1.814343441e-05
1.822207537e-05
1.830934439e-05
1.840607136e-05
1.851313938e-05
1.863148247e-05
1.876208189e-05
1.890596083e-05
1.90641774e-05
1.92378158e-05
1.942797568e-05
1.963575969e-05
1.986225941e-05
2.010854e-05
2.037562375e-05
2.066447331e-05
2.097597494e-05
2.131092251e-05
2.16700029e-05
2.20537835e-05
2.246270228e-05
2.289706106e-05
2.335702209e-05
2.384260834e-05
2.435370733e-05
2.489007831e-05
2.545136247e-05
2.603709581e-05
2.664672371e-05
2.727961706e-05
2.793508899e-05
2.861241195e-05
2.931083509e-05
3.002960311e-05
3.076798354e-05
3.152503987e-05
3.230081297e-05
3.309339018e-05
3.390605677e-05
3.473803905e-05
3.558966373e-05
3.644602898e-05
3.731637156e-05
3.820021171e-05
3.909692444e-05
4.00056224e-05
4.093649578e-05
4.186667001e-05
4.28068926e-05
4.375671297e-05
4.471522504e-05
4.568265234e-05
4.666710279e-05
4.764653013e-05
4.862934316e-05
4.961523247e-05
5.060828963e-05
5.159231482e-05
5.257080642e-05
5.354127935e-05
5.449859424e-05
5.544010896e-05
5.636069371e-05
5.725652187e-05
5.812344446e-05
5.895730449e-05
5.97541746e-05
6.051143883e-05
6.122351412e-05
6.189110096e-05
6.25095992e-05
6.308090325e-05
6.360628771e-05
6.408788992e-05
6.452855338e-05
6.49330088e-05
6.530524064e-05
6.564636734e-05
6.595947744e-05
6.624752907e-05
6.6513203e-05
6.675890555e-05
6.698680411e-05
6.719882456e-05
6.739657345e-05
6.758007166e-05
6.775231423e-05
6.791513111e-05
6.806844585e-05
6.821315853e-05
6.835005852e-05
6.847982325e-05
6.860303742e-05
6.872018251e-05
6.883176485e-05
6.893815651e-05
6.903971614e-05
6.91367681e-05
6.922960619e-05
6.931849782e-05
6.940368712e-05
6.94853977e-05
6.956383484e-05
6.963918757e-05
6.971163024e-05
6.97813241e-05
6.984841855e-05
6.991305225e-05
6.997535418e-05
7.003544441e-05
7.0093435e-05
7.014943063e-05
7.020352922e-05
7.025582249e-05
7.030639644e-05
7.03553318e-05
7.040270445e-05
7.044858574e-05
7.049304286e-05
7.053613914e-05
7.057793428e-05
7.061848464e-05
7.065784348e-05
7.06960611e-05
7.073318513e-05
7.076926063e-05
7.080433029e-05
7.083843457e-05
7.087161185e-05
7.090389856e-05
7.093532929e-05
7.096593689e-05
7.099575262e-05
7.10248062e-05
7.105312591e-05
7.108073868e-05
7.110767019e-05
7.11339449e-05
7.115958614e-05
7.118461616e-05
7.120905623e-05
7.123292664e-05
7.125624678e-05
7.12790352e-05
7.130130962e-05
7.132308702e-05
7.134438363e-05
7.136521501e-05
7.138559605e-05
7.140554102e-05
7.142506363e-05
7.144417699e-05
7.146289371e-05
7.148122588e-05
7.149918511e-05
7.151678255e-05
7.153402892e-05
7.155093452e-05
7.156750927e-05
7.158376268e-05
7.159970393e-05
7.161534184e-05
7.163068492e-05
7.164574135e-05
7.166051901e-05
7.16750255e-05
7.168926816e-05
7.170325405e-05
7.171698998e-05
7.173048254e-05
7.174373808e-05
7.175676271e-05
7.176956238e-05
7.178214278e-05
7.179450945e-05
7.180666774e-05
7.18186228e-05
7.183037963e-05
7.184194307e-05
7.185331775e-05
7.186450826e-05
7.187551895e-05
7.188635406e-05
7.18970177e-05
7.190751384e-05
7.191784635e-05
7.192801896e-05
7.193803529e-05
7.194789886e-05
7.195761308e-05
7.196718124e-05
7.197660656e-05
7.198589215e-05
7.199504103e-05
7.200405614e-05
7.201294032e-05
7.202169634e-05
7.20303269e-05
7.20388346e-05
7.204722198e-05
7.205549152e-05
7.206364561e-05
7.207168658e-05
7.207961672e-05
7.208743822e-05
7.209515323e-05
7.210276386e-05
7.211027212e-05
7.211768002e-05
7.212498946e-05
7.213220234e-05
7.213932049e-05
7.214634569e-05
7.215327967e-05
7.216012413e-05
7.216688072e-05
7.217355105e-05
7.218013669e-05
7.218663917e-05
7.219305998e-05
7.219940057e-05
7.220566237e-05
7.221184675e-05
7.221795508e-05
7.222398867e-05
7.22299488e-05
7.223583674e-05
7.224165371e-05
7.224740091e-05
7.225307952e-05
7.225869066e-05
7.226423547e-05
7.226971503e-05
7.227513041e-05
7.228048265e-05
7.228577277e-05
7.229100176e-05
7.22961706e-05
7.230128024e-05
7.230633161e-05
7.231132562e-05
7.231626316e-05
7.23211451e-05
7.232597229e-05
7.233074556e-05
7.233546574e-05
7.234013361e-05
7.234474996e-05
7.234931556e-05
7.235383115e-05
7.235829746e-05
7.236271521e-05
7.236708511e-05
7.237140783e-05
7.237568407e-05
7.237991446e-05
7.238409967e-05
7.238824032e-05
7.239233704e-05
7.239639043e-05
7.240040108e-05
7.240436959e-05
7.240829652e-05
7.241218244e-05
7.241602789e-05
7.241983341e-05
7.242359954e-05
7.242732679e-05
7.243101566e-05
7.243466666e-05
7.243828028e-05
7.244185699e-05
7.244539727e-05
7.244890157e-05
7.245237036e-05
7.245580406e-05
7.245920313e-05
7.246256798e-05
7.246589904e-05
7.246919671e-05
7.247246141e-05
7.247569353e-05
7.247889346e-05
7.248206159e-05
7.248519827e-05
7.24883039e-05
7.249137882e-05
7.24944234e-05
7.249743799e-05
7.250042291e-05
7.250337853e-05
7.250630516e-05
7.250920312e-05
7.251207275e-05
7.251491435e-05
7.251772824e-05
7.25205147e-05
7.252327406e-05
7.252600658e-05
7.252871258e-05
7.253139231e-05
7.253404608e-05
7.253667414e-05
7.253927677e-05
7.254185422e-05
7.254440677e-05
7.254693467e-05
7.254943816e-05
7.25519175e-05
7.255437292e-05
7.255680467e-05
7.255921298e-05
7.256159809e-05
7.256396021e-05
7.256629958e-05
7.256861641e-05
7.257091092e-05
7.257318333e-05
7.257543384e-05
7.257766266e-05
7.257986999e-05
7.258205604e-05
7.258422099e-05
7.258636505e-05
7.258848841e-05
7.259059124e-05
7.259267375e-05
7.25947361e-05
7.259677848e-05
7.259880106e-05
7.260080403e-05
7.260278754e-05
7.260475177e-05
7.260669689e-05
7.260862306e-05
7.261053043e-05
7.261241918e-05
7.261428945e-05
7.26161414e-05
7.261797518e-05
7.261979094e-05
7.262158883e-05
7.262336899e-05
7.262513157e-05
7.262687671e-05
7.262860455e-05
7.263031522e-05
7.263200886e-05
7.263368561e-05
7.263534559e-05
7.263698894e-05
7.263861579e-05
7.264022625e-05
7.264182046e-05
7.264339853e-05
7.26449606e-05
7.264650677e-05
7.264803718e-05
7.264955192e-05
7.265105112e-05
7.26525349e-05
7.265400336e-05
7.265545661e-05
7.265689476e-05
7.265831793e-05
7.265972622e-05
7.266111972e-05
7.266249856e-05
7.266386282e-05
7.266521261e-05
7.266654804e-05
7.266786919e-05
7.266917617e-05
7.267046907e-05
7.267174799e-05
7.267301302e-05
7.267426425e-05
7.267550179e-05
7.267672571e-05
7.26779361e-05
7.267913307e-05
7.268031669e-05
7.268148705e-05
7.268264424e-05
7.268378834e-05
7.268491943e-05
7.268603761e-05
7.268714294e-05
7.268823552e-05
7.268931543e-05
7.269038273e-05
7.269143752e-05
7.269247987e-05
7.269350986e-05
7.269452756e-05
7.269553305e-05
7.269652641e-05
7.26975077e-05
7.269847704e-05
7.269943443e-05
7.270037999e-05
7.270131377e-05
7.270223586e-05
7.270314632e-05
7.270404522e-05
7.270493263e-05
7.270580862e-05
7.270667326e-05
7.270752662e-05
7.270836875e-05
7.270919974e-05
7.271001964e-05
7.271082852e-05
7.271162644e-05
7.271241347e-05
7.271318968e-05
7.271395512e-05
7.271470987e-05
7.271545397e-05
7.27161875e-05
7.271691052e-05
7.271762308e-05
7.271832525e-05
7.271901709e-05
7.271969866e-05
7.272037002e-05
7.272103123e-05
7.272168234e-05
7.272232343e-05
7.272295453e-05
7.272357572e-05
7.272418705e-05
7.272478858e-05
7.272538036e-05
7.272596246e-05
7.272653493e-05
7.272709782e-05
7.272765119e-05
7.27281951e-05
7.272872961e-05
7.272925476e-05
7.272977062e-05
7.273027723e-05
7.273077467e-05
7.273126296e-05
7.273174219e-05
7.273221239e-05
7.273267362e-05
7.273312593e-05
7.273356939e-05
7.273400403e-05
7.273442993e-05
7.273484712e-05
7.273525566e-05
7.273565561e-05
7.273604702e-05
7.273642994e-05
7.273680442e-05
7.273717052e-05
7.273752829e-05
7.273787777e-05
7.273821903e-05
7.273855212e-05
7.273887709e-05
7.273919398e-05
7.273950285e-05
7.273980376e-05
7.274009676e-05
7.274038189e-05
7.274065921e-05
7.274092877e-05
7.274119063e-05
7.274144483e-05
7.274169142e-05
7.274193047e-05
7.274216201e-05
7.27423861e-05
7.27426028e-05
7.274281215e-05
7.274301421e-05
7.274320903e-05
7.274339666e-05
7.274357715e-05
7.274375055e-05
7.274391692e-05
7.274407631e-05
7.274422876e-05
7.274437434e-05
7.274451309e-05
7.274464507e-05
7.274477032e-05
7.274488891e-05
7.274500088e-05
7.274510629e-05
7.274520518e-05
7.274529761e-05
7.274538364e-05
7.274546332e-05
7.274553669e-05
7.274560382e-05
7.274566475e-05
7.274571954e-05
7.274576825e-05
7.274581092e-05
7.274584762e-05
7.274587838e-05
7.274590328e-05
7.274592236e-05
7.274593568e-05
7.274594329e-05
7.274594525e-05
7.274594161e-05
7.274593243e-05
7.274591776e-05
7.274589766e-05
7.274587219e-05
7.274584139e-05
7.274580534e-05
7.274576408e-05
7.274571767e-05
7.274566617e-05
7.274560963e-05
7.274554812e-05
7.27454817e-05
7.274541041e-05
7.274533432e-05
7.274525349e-05
7.274516798e-05
7.274507784e-05
7.274498315e-05
7.274488395e-05
7.274478031e-05
7.274467229e-05
7.274455995e-05
7.274444336e-05
7.274432257e-05
7.274419766e-05
7.274406867e-05
7.274393569e-05
7.274379876e-05
7.274365796e-05
7.274351336e-05
7.274336501e-05
7.274321298e-05
7.274305735e-05
7.274289818e-05
7.274273553e-05
7.274256948e-05
7.27424001e-05
7.274222745e-05
7.27420516e-05
7.274187264e-05
7.274169062e-05
7.274150563e-05
7.274131773e-05
7.274112699e-05
7.274093351e-05
7.274073734e-05
7.274053856e-05
7.274033726e-05
7.274013347e-05
7.273992734e-05
7.273971892e-05
7.273950828e-05
7.273929551e-05
7.273908069e-05
7.273886391e-05
7.273864524e-05
7.273842479e-05
7.273820263e-05
7.273797886e-05
7.273775358e-05
7.273752687e-05
7.273729885e-05
7.27370696e-05
7.273683922e-05
7.27366078e-05
7.273637542e-05
7.273614211e-05
7.273590791e-05
7.273567278e-05
7.27354366e-05
7.273519914e-05
7.273496002e-05
7.273471865e-05
7.273447417e-05
7.273422529e-05
7.273397041e-05
7.273184347e-05
7.27284607e-05
7.272546609e-05
7.272288651e-05
7.272074691e-05
7.27190627e-05
7.271784251e-05
7.2717089e-05
7.27167989e-05
7.27169634e-05
7.271756865e-05
7.271859633e-05
7.272002418e-05
7.272182648e-05
7.272397466e-05
7.272643772e-05
7.272918281e-05
7.273217568e-05
7.273538114e-05
7.273876354e-05
7.274228717e-05
7.274591667e-05
7.274961735e-05
7.275335555e-05
7.275709891e-05
7.276081662e-05
7.276447964e-05
7.276806087e-05
7.277153528e-05
7.277488004e-05
7.277807456e-05
7.278110054e-05
7.278394202e-05
7.278658531e-05
7.2789019e-05
7.279123389e-05
7.279322291e-05
7.279498107e-05
7.279650532e-05
7.279779448e-05
7.279884914e-05
7.279967148e-05
7.280026525e-05
7.280063555e-05
7.28007888e-05
7.280073257e-05
7.280047545e-05
7.280002701e-05
7.279939758e-05
7.279859824e-05
7.279764066e-05
7.279653699e-05
7.279529978e-05
7.27939419e-05
7.27924764e-05
7.279091646e-05
7.278927529e-05
7.278756605e-05
7.27858018e-05
7.27839954e-05
7.278215948e-05
7.278030635e-05
7.277844799e-05
7.277659594e-05
7.277476134e-05
7.277295481e-05
7.277118646e-05
7.276946581e-05
7.276780179e-05
7.276620267e-05
7.276467603e-05
7.276322871e-05
7.276186675e-05
7.276059537e-05
7.275941889e-05
7.27583407e-05
7.275736321e-05
7.275648782e-05
7.275571485e-05
7.275504359e-05
7.27544722e-05
7.27539978e-05
7.275361646e-05
7.275332323e-05
7.275311223e-05
7.275297676e-05
7.275290933e-05
7.275290187e-05
7.275294586e-05
7.275303244e-05
7.275315265e-05
7.275329754e-05
7.275345841e-05
7.275362695e-05
7.27537954e-05
7.275395673e-05
7.275410473e-05
7.275423415e-05
7.275434075e-05
7.275442137e-05
7.275447393e-05
7.275449741e-05
7.275449183e-05
7.275445815e-05
7.275439816e-05
7.27543144e-05
7.275420998e-05
7.275408842e-05
7.275395355e-05
7.275380931e-05
7.275365962e-05
7.275350822e-05
7.275335859e-05
7.27532138e-05
7.275307647e-05
7.27529487e-05
7.275283202e-05
7.275272743e-05
7.275263534e-05
7.275255569e-05
7.275248795e-05
7.27524312e-05
7.27523842e-05
7.27523455e-05
7.275231347e-05
7.275228646e-05
7.275226279e-05
7.275224089e-05
7.275221933e-05
7.275219686e-05
7.275217245e-05
7.275214533e-05
7.275211496e-05
7.275208105e-05
7.275204356e-05
7.275200263e-05
7.27519586e-05
7.275191193e-05
7.275186321e-05
7.275181306e-05
7.275176216e-05
7.275171117e-05
7.275166073e-05
7.275161141e-05
7.275156369e-05
7.275151799e-05
7.275147461e-05
7.275143376e-05
7.275139556e-05
7.275136003e-05
7.275132714e-05
7.275129678e-05
7.275126878e-05
7.275124294e-05
7.275121907e-05
7.275119693e-05
7.27511763e-05
7.275115698e-05
7.275113877e-05
7.275112149e-05
7.275110501e-05
7.275108921e-05
7.275107399e-05
7.275105928e-05
7.275104503e-05
7.275103121e-05
7.275101781e-05
7.275100482e-05
7.275099224e-05
7.275098009e-05
7.275096838e-05
7.275095714e-05
7.275094638e-05
7.275093614e-05
7.275092644e-05
7.275091732e-05
7.27509088e-05
7.275090093e-05
7.275089373e-05
7.275088725e-05
7.275088152e-05
7.275087658e-05
7.275087246e-05
7.27508692e-05
7.275086681e-05
7.275086532e-05
7.275086473e-05
7.275086505e-05
7.275086627e-05
7.275086835e-05
7.275087128e-05
7.275087502e-05
7.275087949e-05
7.275088465e-05
7.275089042e-05
7.275089671e-05
7.275090344e-05
7.275091052e-05
7.275091784e-05
7.275092532e-05
7.275093284e-05
7.275094031e-05
7.275094763e-05
7.275095472e-05
7.275096149e-05
7.275096786e-05
7.275097375e-05
7.275097912e-05
7.275098389e-05
7.275098804e-05
7.275099152e-05
7.275099431e-05
7.275099639e-05
7.275099777e-05
7.275099845e-05
7.275099843e-05
7.275099774e-05
7.27509964e-05
7.275099445e-05
7.275099192e-05
7.275098886e-05
7.275098531e-05
7.275098132e-05
7.275097694e-05
7.275097221e-05
7.27509672e-05
7.275096194e-05
7.27509565e-05
7.27509509e-05
7.275094521e-05
7.275093945e-05
7.275093368e-05
7.275092793e-05
7.275092223e-05
7.275091662e-05
7.275091112e-05
7.275090576e-05
7.275090057e-05
7.275089555e-05
7.275089072e-05
7.275088609e-05
7.275088168e-05
7.275087749e-05
7.275087352e-05
7.275086977e-05
7.275086623e-05
7.275086292e-05
7.275085985e-05
7.275085711e-05
7.275085503e-05
)
;

boundaryField
{
    inlet
    {
        type            calculated;
        value           uniform 1.804592554e-05;
    }
    outlet
    {
        type            calculated;
        value           uniform 7.275085503e-05;
    }
    wall
    {
        type            empty;
    }
}


// ************************************************************************* //
