/*--------------------------------*- C++ -*----------------------------------*\
  =========                 |
  \\      /  F ield         | OpenFOAM: The Open Source CFD Toolbox
   \\    /   O peration     | Website:  https://openfoam.org
    \\  /    A nd           | Version:  7
     \\/     M anipulation  |
\*---------------------------------------------------------------------------*/
FoamFile
{
    version     2.0;
    format      ascii;
    class       volScalarField;
    location    "0.000558243009";
    object      N2;
}
// * * * * * * * * * * * * * * * * * * * * * * * * * * * * * * * * * * * * * //

dimensions      [0 0 0 0 0 0 0];

internalField   nonuniform List<scalar> 
1500
(
0.9850945441
0.941678435
0.8795536574
0.8188073578
0.7731732595
0.7450654712
0.7303225182
0.7235795629
0.7208450008
0.7198486279
0.7195188464
0.719418766
0.7193906965
0.7193833713
0.7193815822
0.7193811712
0.719381082
0.7193810636
0.71938106
0.7193810593
0.7193810592
0.7193810592
0.7193810592
0.7193810592
0.7193810592
0.7193810592
0.7193810592
0.7193810592
0.7193810592
0.7193810592
0.7193810592
0.7193810592
0.7193810592
0.7193810592
0.7193810592
0.7193810592
0.7193810592
0.7193810592
0.7193810592
0.7193810592
0.7193810592
0.7193810592
0.7193810592
0.7193810592
0.7193810592
0.7193810592
0.7193810592
0.7193810592
0.7193810592
0.7193810592
0.7193810592
0.7193810592
0.7193810592
0.7193810592
0.7193810592
0.7193810592
0.7193810592
0.7193810592
0.7193810592
0.7193810592
0.7193810592
0.7193810592
0.7193810592
0.7193810592
0.7193810592
0.7193810592
0.7193810592
0.7193810592
0.7193810592
0.7193810592
0.7193810592
0.7193810592
0.7193810592
0.7193810592
0.7193810592
0.7193810592
0.7193810592
0.7193810592
0.7193810592
0.7193810592
0.7193810592
0.7193810592
0.7193810592
0.7193810592
0.7193810592
0.7193810592
0.7193810592
0.7193810592
0.7193810592
0.7193810592
0.7193810592
0.7193810592
0.7193810592
0.7193810592
0.7193810592
0.7193810592
0.7193810592
0.7193810592
0.7193810592
0.7193810592
0.7193810592
0.7193810592
0.7193810592
0.7193810592
0.7193810592
0.7193810592
0.7193810592
0.7193810592
0.7193810592
0.7193810592
0.7193810592
0.7193810592
0.7193810592
0.7193810592
0.7193810592
0.7193810592
0.7193810592
0.7193810592
0.7193810592
0.7193810592
0.7193810592
0.7193810592
0.7193810592
0.7193810592
0.7193810592
0.7193810592
0.7193810592
0.7193810592
0.7193810592
0.7193810592
0.7193810592
0.7193810592
0.7193810592
0.7193810592
0.7193810592
0.7193810592
0.7193810592
0.7193810592
0.7193810592
0.7193810592
0.7193810592
0.7193810592
0.7193810592
0.7193810592
0.7193810592
0.7193810592
0.7193810592
0.7193810592
0.7193810592
0.7193810592
0.7193810592
0.7193810592
0.7193810592
0.7193810592
0.7193810592
0.7193810592
0.7193810592
0.7193810592
0.7193810592
0.7193810592
0.7193810592
0.7193810592
0.7193810592
0.7193810592
0.7193810592
0.7193810592
0.7193810592
0.7193810592
0.7193810592
0.7193810592
0.7193810592
0.7193810592
0.7193810592
0.7193810592
0.7193810592
0.7193810592
0.7193810592
0.7193810592
0.7193810592
0.7193810592
0.7193810592
0.7193810592
0.7193810592
0.7193810592
0.7193810592
0.7193810592
0.7193810592
0.7193810592
0.7193810592
0.7193810592
0.7193810592
0.7193810592
0.7193810592
0.7193810592
0.7193810592
0.7193810592
0.7193810592
0.7193810592
0.7193810592
0.7193810592
0.7193810592
0.7193810592
0.7193810592
0.7193810592
0.7193810592
0.7193810592
0.7193810592
0.7193810592
0.7193810592
0.7193810592
0.7193810592
0.7193810592
0.7193810592
0.7193810592
0.7193810592
0.7193810592
0.7193810592
0.7193810592
0.7193810592
0.7193810592
0.7193810592
0.7193810592
0.7193810592
0.7193810592
0.7193810592
0.7193810592
0.7193810592
0.7193810592
0.7193810592
0.7193810592
0.7193810592
0.7193810592
0.7193810592
0.7193810592
0.7193810591
0.7193810591
0.7193810591
0.719381059
0.719381059
0.7193810588
0.7193810586
0.7193810583
0.7193810578
0.7193810572
0.7193810562
0.7193810549
0.7193810531
0.7193810506
0.7193810472
0.7193810425
0.7193810409
0.7193810405
0.71938104
0.7193810396
0.7193810392
0.7193810387
0.7193810382
0.7193810378
0.7193810373
0.7193810368
0.7193810363
0.7193810358
0.7193810352
0.7193810347
0.7193810341
0.7193810336
0.719381033
0.7193810324
0.7193810318
0.7193810312
0.7193810305
0.7193810299
0.7193810293
0.7193810286
0.7193810279
0.7193810272
0.7193810265
0.7193810258
0.719381025
0.7193810243
0.7193810235
0.7193810227
0.7193810219
0.7193810211
0.7193810202
0.7193810194
0.7193810185
0.7193810176
0.7193810167
0.7193810158
0.7193810148
0.7193810139
0.7193810129
0.7193810119
0.7193810109
0.7193810098
0.7193810088
0.7193810077
0.7193810066
0.7193810054
0.7193810043
0.7193810031
0.7193810019
0.7193810007
0.7193809995
0.7193809982
0.7193809969
0.7193809956
0.7193809942
0.7193809929
0.7193809915
0.71938099
0.7193809886
0.7193809871
0.7193809856
0.7193809841
0.7193809825
0.7193809809
0.7193809793
0.7193809777
0.719380976
0.7193809743
0.7193809725
0.7193809707
0.7193809689
0.7193809671
0.7193809652
0.7193809633
0.7193809613
0.7193809593
0.7193809573
0.7193809552
0.7193809531
0.719380951
0.7193809488
0.7193809466
0.7193809443
0.719380942
0.7193809397
0.7193809373
0.7193809349
0.7193809324
0.7193809299
0.7193809274
0.7193809248
0.7193809221
0.7193809194
0.7193809167
0.7193809139
0.719380911
0.7193809081
0.7193809052
0.7193809022
0.7193808991
0.719380896
0.7193808928
0.7193808896
0.7193808863
0.719380883
0.7193808796
0.7193808762
0.7193808727
0.7193808691
0.7193808655
0.7193808618
0.719380858
0.7193808542
0.7193808503
0.7193808463
0.7193808423
0.7193808382
0.719380834
0.7193808297
0.7193808254
0.719380821
0.7193808166
0.719380812
0.7193808074
0.7193808027
0.7193807979
0.719380793
0.7193807881
0.719380783
0.7193807779
0.7193807727
0.7193807674
0.719380762
0.7193807565
0.7193807509
0.7193807452
0.7193807394
0.7193807336
0.7193807276
0.7193807215
0.7193807153
0.719380709
0.7193807026
0.7193806961
0.7193806895
0.7193806827
0.7193806759
0.7193806689
0.7193806618
0.7193806546
0.7193806472
0.7193806398
0.7193806322
0.7193806244
0.7193806166
0.7193806086
0.7193806004
0.7193805921
0.7193805837
0.7193805751
0.7193805664
0.7193805575
0.7193805485
0.7193805393
0.71938053
0.7193805205
0.7193805108
0.7193805009
0.7193804909
0.7193804807
0.7193804703
0.7193804597
0.719380449
0.719380438
0.7193804269
0.7193804155
0.719380404
0.7193803922
0.7193803803
0.7193803681
0.7193803557
0.7193803431
0.7193803302
0.7193803171
0.7193803038
0.7193802903
0.7193802764
0.7193802624
0.7193802481
0.7193802335
0.7193802186
0.7193802035
0.7193801881
0.7193801724
0.7193801564
0.7193801401
0.7193801235
0.7193801065
0.7193800893
0.7193800718
0.7193800539
0.7193800356
0.7193800171
0.7193799981
0.7193799788
0.7193799591
0.7193799391
0.7193799186
0.7193798978
0.7193798766
0.7193798549
0.7193798328
0.7193798103
0.7193797873
0.7193797639
0.71937974
0.7193797156
0.7193796907
0.7193796654
0.7193796395
0.7193796131
0.7193795861
0.7193795586
0.7193795306
0.7193795019
0.7193794727
0.7193794429
0.7193794124
0.7193793813
0.7193793495
0.7193793171
0.719379284
0.7193792502
0.7193792156
0.7193791803
0.7193791443
0.7193791075
0.7193790699
0.7193790314
0.7193789921
0.719378952
0.7193789109
0.719378869
0.7193788261
0.7193787822
0.7193787374
0.7193786916
0.7193786447
0.7193785967
0.7193785477
0.7193784975
0.7193784462
0.7193783937
0.7193783399
0.7193782849
0.7193782287
0.7193781711
0.7193781121
0.7193780517
0.7193779899
0.7193779266
0.7193778618
0.7193777954
0.7193777274
0.7193776578
0.7193775864
0.7193775133
0.7193774384
0.7193773617
0.719377283
0.7193772023
0.7193771197
0.7193770349
0.719376948
0.7193768589
0.7193767676
0.7193766738
0.7193765777
0.7193764791
0.7193763779
0.7193762741
0.7193761676
0.7193760583
0.7193759461
0.7193758309
0.7193757127
0.7193755912
0.7193754666
0.7193753385
0.719375207
0.719375072
0.7193749332
0.7193747906
0.7193746441
0.7193744935
0.7193743387
0.7193741796
0.719374016
0.7193738478
0.7193736748
0.7193734969
0.7193733139
0.7193731256
0.7193729318
0.7193727323
0.719372527
0.7193723156
0.719372098
0.7193718738
0.7193716429
0.7193714049
0.7193711597
0.719370907
0.7193706464
0.7193703776
0.7193701004
0.7193698144
0.7193695192
0.7193692145
0.7193688998
0.7193685747
0.7193682388
0.7193678916
0.7193675326
0.7193671612
0.7193667769
0.7193663791
0.719365967
0.71936554
0.7193650974
0.7193646384
0.719364162
0.7193636674
0.7193631536
0.7193626196
0.7193620641
0.719361486
0.7193608839
0.7193602564
0.7193596019
0.7193589188
0.7193582054
0.7193574595
0.7193566792
0.719355862
0.7193550056
0.7193541071
0.7193531638
0.7193521723
0.7193511292
0.7193500306
0.7193488726
0.7193476505
0.7193463595
0.7193449942
0.7193435488
0.7193420169
0.7193403916
0.7193386652
0.7193368294
0.7193348752
0.7193327926
0.7193305708
0.7193281979
0.7193256608
0.7193229453
0.7193200358
0.7193169153
0.719313565
0.7193099645
0.7193060913
0.7193019208
0.719297426
0.7192925775
0.7192873428
0.7192816865
0.7192755697
0.7192689496
0.7192617797
0.7192540086
0.7192455801
0.7192364326
0.7192264987
0.7192157043
0.7192039682
0.7191912015
0.7191773067
0.7191621771
0.7191456957
0.7191277343
0.7191081526
0.7190867969
0.7190634992
0.7190380757
0.7190103253
0.7189800285
0.7189469454
0.7189108144
0.7188713506
0.7188282433
0.7187811549
0.7187297187
0.7186735372
0.7186121799
0.7185451819
0.7184720422
0.7183922222
0.718305145
0.7182101942
0.7181067141
0.7179940101
0.7178713503
0.7177379673
0.717593062
0.7174358083
0.7172653589
0.7170808537
0.7168814287
0.7166662277
0.7164344154
0.7161851923
0.7159178118
0.7156315984
0.7153259679
0.7150004486
0.7146547032
0.7142885521
0.7139019965
0.7134952422
0.7130687231
0.7126231248
0.7121594085
0.7116788344
0.7111829857
0.710673792
0.7101535538
0.7096249674
0.70909115
0.7085556667
0.7080225597
0.7074963809
0.7069822295
0.7064857681
0.7060133515
0.705572054
0.7051699589
0.7048180489
0.7045283711
0.7043127535
0.7041697859
0.7041182431
0.7041725715
0.7043446059
0.7046413527
0.7050619139
0.7055977952
0.7062399532
0.7069834175
0.7078249174
0.7087612915
0.7098366605
0.7109388881
0.7120984311
0.7132930451
0.7145340114
0.7157163956
0.7168458451
0.7178961494
0.71887063
0.7197263091
0.7204802656
0.7211364043
0.7217022944
0.7221864861
0.7225962921
0.7229400035
0.7232178889
0.7234371359
0.7236003652
0.7237126569
0.7237788124
0.7238041495
0.7237941848
0.7237510349
0.7236801384
0.7235882536
0.7234801504
0.7233598853
0.7232309257
0.7230961577
0.7229579482
0.7228181931
0.7226791071
0.7225488184
0.7224211667
0.722292516
0.7221685601
0.7220496018
0.7219356029
0.7218264717
0.721722107
0.7216227109
0.7215276148
0.7214369933
0.7213507236
0.7212686637
0.7211906593
0.7211165459
0.7210461532
0.7209793078
0.7209158362
0.7208555669
0.7207983324
0.7207439704
0.7206923244
0.7206432445
0.7205965876
0.7205522174
0.7205100049
0.7204698276
0.7204315698
0.7203951222
0.720360382
0.720327252
0.7202956409
0.7202654627
0.7202366366
0.7202090867
0.7201827416
0.7201575343
0.7201334018
0.720110285
0.7200881284
0.72006688
0.7200464908
0.7200269148
0.720008109
0.7199900327
0.719972648
0.719955919
0.7199398121
0.7199242957
0.7199093401
0.7198949173
0.719881001
0.7198675664
0.7198545902
0.7198420504
0.7198299263
0.7198181983
0.7198068482
0.7197958584
0.7197852126
0.7197748953
0.719764892
0.7197551887
0.7197457724
0.7197366308
0.7197277522
0.7197191255
0.7197107403
0.7197025865
0.7196946549
0.7196869365
0.7196794228
0.7196721058
0.7196649779
0.7196580318
0.7196512606
0.7196446579
0.7196382173
0.719631933
0.7196257993
0.7196198108
0.7196139625
0.7196082493
0.7196026668
0.7195972104
0.7195918758
0.7195866591
0.7195815564
0.7195765639
0.7195716781
0.7195668956
0.7195622133
0.7195576278
0.7195531364
0.7195487361
0.7195444242
0.7195401981
0.7195360552
0.7195319932
0.7195280096
0.7195241023
0.7195202691
0.7195165079
0.7195128168
0.7195091938
0.7195056371
0.7195021449
0.7194987155
0.7194953472
0.7194920385
0.7194887878
0.7194855936
0.7194824545
0.7194793691
0.7194763361
0.7194733542
0.7194704221
0.7194675387
0.7194647027
0.7194619131
0.7194591687
0.7194564684
0.7194538114
0.7194511965
0.7194486228
0.7194460894
0.7194435954
0.7194411398
0.719438722
0.7194363409
0.7194339959
0.7194316861
0.7194294108
0.7194271692
0.7194249608
0.7194227847
0.7194206402
0.7194185269
0.7194164439
0.7194143907
0.7194123668
0.7194103714
0.7194084041
0.7194064643
0.7194045514
0.719402665
0.7194008045
0.7193989694
0.7193971593
0.7193953736
0.719393612
0.7193918739
0.719390159
0.7193884668
0.7193867969
0.7193851489
0.7193835224
0.719381917
0.7193803324
0.7193787681
0.7193772239
0.7193756993
0.7193741941
0.7193727079
0.7193712403
0.7193697911
0.7193683599
0.7193669465
0.7193655505
0.7193641717
0.7193628098
0.7193614644
0.7193601354
0.7193588224
0.7193575252
0.7193562436
0.7193549773
0.719353726
0.7193524896
0.7193512677
0.7193500602
0.7193488668
0.7193476874
0.7193465216
0.7193453693
0.7193442303
0.7193431044
0.7193419913
0.719340891
0.7193398031
0.7193387276
0.7193376641
0.7193366127
0.719335573
0.7193345448
0.7193335282
0.7193325227
0.7193315284
0.719330545
0.7193295724
0.7193286105
0.719327659
0.7193267178
0.7193257868
0.7193248658
0.7193239548
0.7193230534
0.7193221618
0.7193212795
0.7193204067
0.7193195431
0.7193186885
0.719317843
0.7193170063
0.7193161783
0.7193153589
0.7193145481
0.7193137456
0.7193129513
0.7193121653
0.7193113872
0.7193106171
0.7193098549
0.7193091004
0.7193083535
0.7193076141
0.7193068821
0.7193061575
0.7193054401
0.7193047299
0.7193040267
0.7193033304
0.7193026411
0.7193019585
0.7193012826
0.7193006133
0.7192999505
0.7192992941
0.7192986441
0.7192980004
0.7192973629
0.7192967314
0.7192961061
0.7192954866
0.7192948731
0.7192942654
0.7192936634
0.7192930671
0.7192924764
0.7192918912
0.7192913115
0.7192907371
0.7192901681
0.7192896044
0.7192890458
0.7192884924
0.719287944
0.7192874007
0.7192868623
0.7192863287
0.7192858
0.7192852761
0.7192847569
0.7192842423
0.7192837323
0.7192832269
0.7192827259
0.7192822294
0.7192817372
0.7192812494
0.7192807659
0.7192802865
0.7192798114
0.7192793403
0.7192788734
0.7192784104
0.7192779514
0.7192774964
0.7192770452
0.7192765979
0.7192761544
0.7192757146
0.7192752785
0.719274846
0.7192744172
0.719273992
0.7192735702
0.719273152
0.7192727372
0.7192723258
0.7192719177
0.719271513
0.7192711116
0.7192707134
0.7192703185
0.7192699266
0.719269538
0.7192691524
0.7192687699
0.7192683904
0.7192680138
0.7192676403
0.7192672696
0.7192669019
0.7192665369
0.7192661748
0.7192658155
0.7192654589
0.719265105
0.7192647538
0.7192644053
0.7192640594
0.719263716
0.7192633753
0.719263037
0.7192627012
0.7192623679
0.7192620371
0.7192617086
0.7192613825
0.7192610588
0.7192607374
0.7192604183
0.7192601014
0.7192597868
0.7192594744
0.7192591641
0.719258856
0.7192585501
0.7192582462
0.7192579444
0.7192576447
0.719257347
0.7192570513
0.7192567576
0.7192564658
0.7192561759
0.719255888
0.7192556019
0.7192553177
0.7192550353
0.7192547547
0.7192544759
0.7192541988
0.7192539235
0.7192536499
0.719253378
0.7192531078
0.7192528392
0.7192525723
0.7192523069
0.7192520431
0.7192517809
0.7192515203
0.7192512611
0.7192510035
0.7192507473
0.7192504926
0.7192502394
0.7192499875
0.7192497371
0.719249488
0.7192492404
0.719248994
0.719248749
0.7192485053
0.7192482628
0.7192480217
0.7192477817
0.7192475431
0.7192473056
0.7192470693
0.7192468342
0.7192466003
0.7192463675
0.7192461358
0.7192459053
0.7192456758
0.7192454474
0.7192452201
0.7192449938
0.7192447686
0.7192445443
0.7192443211
0.7192440988
0.7192438775
0.7192436571
0.7192434376
0.7192432191
0.7192430015
0.7192427847
0.7192425689
0.7192423539
0.7192421397
0.7192419263
0.7192417138
0.719241502
0.7192412911
0.7192410809
0.7192408714
0.7192406627
0.7192404547
0.7192402474
0.7192400409
0.719239835
0.7192396297
0.7192394252
0.7192392213
0.719239018
0.7192388153
0.7192386132
0.7192384117
0.7192382108
0.7192380105
0.7192378107
0.7192376115
0.7192374127
0.7192372145
0.7192370168
0.7192368196
0.7192366229
0.7192364266
0.7192362308
0.7192360354
0.7192358405
0.719235646
0.7192354518
0.7192352581
0.7192350648
0.7192348718
0.7192346792
0.7192344869
0.719234295
0.7192341034
0.7192339121
0.7192337211
0.7192335304
0.7192333399
0.7192331498
0.7192329599
0.7192327702
0.7192325807
0.7192323915
0.7192322025
0.7192320137
0.719231825
0.7192316366
0.7192314482
0.7192312601
0.719231072
0.7192308841
0.7192306963
0.7192305086
0.719230321
0.7192301334
0.7192299459
0.7192297585
0.719229571
0.7192293836
0.7192291962
0.7192290087
0.7192288212
0.7192286337
0.7192284461
0.7192282585
0.7192280707
0.7192278828
0.7192276948
0.7192275066
0.7192273183
0.7192271297
0.719226941
0.719226752
0.7192265628
0.7192263732
0.7192261834
0.7192259932
0.7192258027
0.7192256118
0.7192254204
0.7192252286
0.7192250363
0.7192248435
0.7192246502
0.7192244562
0.7192242616
0.7192240664
0.7192238704
0.7192236736
0.719223476
0.7192232776
0.7192230782
0.7192228779
0.7192226765
0.7192224739
0.7192222702
0.7192220653
0.719221859
0.7192216512
0.7192214419
0.7192212309
0.719221018
0.7192208029
0.7192190302
0.7192164037
0.7192137687
0.7192111065
0.7192084193
0.7192057074
0.7192029707
0.7192002096
0.7191974248
0.7191946173
0.7191917886
0.7191889403
0.7191860742
0.7191831924
0.7191802971
0.7191773904
0.7191744744
0.7191715512
0.7191686227
0.7191656905
0.719162756
0.7191598202
0.7191568839
0.7191539471
0.7191510097
0.7191480709
0.7191451292
0.7191421826
0.7191392286
0.7191362639
0.7191332844
0.7191302856
0.7191272619
0.7191242072
0.7191211146
0.7191179764
0.7191147843
0.7191115291
0.7191082008
0.7191047889
0.7191012821
0.7190976685
0.7190939356
0.7190900705
0.7190860598
0.7190818899
0.7190775472
0.7190730181
0.7190682891
0.7190633475
0.7190581811
0.7190527789
0.7190471311
0.7190412294
0.7190350676
0.7190286415
0.7190219495
0.7190149927
0.7190077751
0.7190003039
0.7189925898
0.7189846467
0.7189764921
0.718968147
0.7189596356
0.7189509853
0.7189422264
0.718933392
0.7189245171
0.7189156387
0.7189067947
0.718898024
0.7188893654
0.7188808571
0.7188725363
0.7188644384
0.7188565965
0.7188490409
0.7188417984
0.7188348923
0.7188283418
0.718822162
0.7188163633
0.7188109521
0.7188059303
0.7188012954
0.7187970414
0.7187931584
0.7187896334
0.7187864507
0.7187835922
0.7187810382
0.7187787674
0.7187767582
0.7187749882
0.7187734356
0.7187720787
0.718770897
0.7187698709
0.7187689823
0.7187682145
0.7187675523
0.7187669823
0.7187664925
0.7187660725
0.7187657132
0.7187654069
0.718765147
0.7187649278
0.7187647446
0.7187645933
0.7187644703
0.7187643724
0.7187642967
0.7187642407
0.718764202
0.7187641782
0.7187641671
0.7187641667
0.7187641747
0.7187641894
0.718764209
0.7187642316
0.718764256
0.7187642806
0.7187643044
0.7187643265
0.7187643462
0.7187643629
0.7187643764
0.7187643865
0.7187643934
0.7187643971
0.7187643981
0.7187643966
0.7187643931
0.7187643881
0.7187643821
0.7187643755
0.7187643687
0.7187643621
0.718764356
0.7187643506
0.7187643461
0.7187643425
0.71876434
0.7187643384
0.7187643377
0.7187643378
0.7187643386
0.71876434
0.7187643417
0.7187643438
0.7187643459
0.7187643482
0.7187643503
0.7187643523
0.7187643541
0.7187643558
0.7187643571
0.7187643583
0.7187643592
0.7187643599
0.7187643605
0.7187643609
0.7187643612
0.7187643614
0.7187643615
0.7187643616
0.7187643616
0.7187643616
0.7187643615
0.7187643614
0.7187643614
0.7187643613
0.7187643612
0.718764361
0.7187643609
0.7187643608
0.7187643606
0.7187643605
0.7187643604
0.7187643603
0.7187643603
0.7187643603
0.7187643603
0.7187643604
0.7187643605
0.7187643607
0.718764361
0.7187643613
0.7187643616
0.718764362
0.7187643625
0.7187643629
0.7187643634
0.7187643639
0.7187643644
0.7187643649
0.7187643654
0.7187643658
0.7187643663
0.7187643667
0.718764367
0.7187643673
0.7187643676
0.7187643679
0.718764368
0.7187643682
0.7187643683
0.7187643683
0.7187643683
0.7187643683
0.7187643682
0.7187643681
0.7187643679
0.7187643677
0.7187643676
0.7187643674
0.7187643671
0.7187643669
0.7187643667
0.7187643665
0.7187643662
0.718764366
0.7187643658
0.7187643656
0.7187643654
0.7187643652
0.7187643651
0.7187643649
0.7187643648
0.7187643647
0.7187643645
0.7187643645
0.7187643644
0.7187643643
0.7187643642
0.7187643642
0.7187643642
0.7187643642
0.7187643641
0.7187643641
0.7187643641
0.7187643642
0.7187643642
0.7187643642
0.7187643642
0.7187643641
0.7187643641
)
;

boundaryField
{
    inlet
    {
        type            fixedValue;
        value           uniform 1;
    }
    outlet
    {
        type            zeroGradient;
    }
    wall
    {
        type            empty;
    }
}


// ************************************************************************* //
