/*--------------------------------*- C++ -*----------------------------------*\
  =========                 |
  \\      /  F ield         | OpenFOAM: The Open Source CFD Toolbox
   \\    /   O peration     | Website:  https://openfoam.org
    \\  /    A nd           | Version:  7
     \\/     M anipulation  |
\*---------------------------------------------------------------------------*/
FoamFile
{
    version     2.0;
    format      ascii;
    class       volScalarField;
    location    "0.000558243009";
    object      N2_0;
}
// * * * * * * * * * * * * * * * * * * * * * * * * * * * * * * * * * * * * * //

dimensions      [0 0 0 0 0 0 0];

internalField   nonuniform List<scalar> 
1500
(
0.9850843632
0.9416476766
0.8795080339
0.8187616489
0.7731381661
0.7450434367
0.7303107744
0.7235741204
0.7208427687
0.7198478063
0.7195185719
0.7194186819
0.7193906727
0.719383365
0.7193815806
0.7193811708
0.7193810819
0.7193810636
0.71938106
0.7193810593
0.7193810592
0.7193810592
0.7193810592
0.7193810592
0.7193810592
0.7193810592
0.7193810592
0.7193810592
0.7193810592
0.7193810592
0.7193810592
0.7193810592
0.7193810592
0.7193810592
0.7193810592
0.7193810592
0.7193810592
0.7193810592
0.7193810592
0.7193810592
0.7193810592
0.7193810592
0.7193810592
0.7193810592
0.7193810592
0.7193810592
0.7193810592
0.7193810592
0.7193810592
0.7193810592
0.7193810592
0.7193810592
0.7193810592
0.7193810592
0.7193810592
0.7193810592
0.7193810592
0.7193810592
0.7193810592
0.7193810592
0.7193810592
0.7193810592
0.7193810592
0.7193810592
0.7193810592
0.7193810592
0.7193810592
0.7193810592
0.7193810592
0.7193810592
0.7193810592
0.7193810592
0.7193810592
0.7193810592
0.7193810592
0.7193810592
0.7193810592
0.7193810592
0.7193810592
0.7193810592
0.7193810592
0.7193810592
0.7193810592
0.7193810592
0.7193810592
0.7193810592
0.7193810592
0.7193810592
0.7193810592
0.7193810592
0.7193810592
0.7193810592
0.7193810592
0.7193810592
0.7193810592
0.7193810592
0.7193810592
0.7193810592
0.7193810592
0.7193810592
0.7193810592
0.7193810592
0.7193810592
0.7193810592
0.7193810592
0.7193810592
0.7193810592
0.7193810592
0.7193810592
0.7193810592
0.7193810592
0.7193810592
0.7193810592
0.7193810592
0.7193810592
0.7193810592
0.7193810592
0.7193810592
0.7193810592
0.7193810592
0.7193810592
0.7193810592
0.7193810592
0.7193810592
0.7193810592
0.7193810592
0.7193810592
0.7193810592
0.7193810592
0.7193810592
0.7193810592
0.7193810592
0.7193810592
0.7193810592
0.7193810592
0.7193810592
0.7193810592
0.7193810592
0.7193810592
0.7193810592
0.7193810592
0.7193810592
0.7193810592
0.7193810592
0.7193810592
0.7193810592
0.7193810592
0.7193810592
0.7193810592
0.7193810592
0.7193810592
0.7193810592
0.7193810592
0.7193810592
0.7193810592
0.7193810592
0.7193810592
0.7193810592
0.7193810592
0.7193810592
0.7193810592
0.7193810592
0.7193810592
0.7193810592
0.7193810592
0.7193810592
0.7193810592
0.7193810592
0.7193810592
0.7193810592
0.7193810592
0.7193810592
0.7193810592
0.7193810592
0.7193810592
0.7193810592
0.7193810592
0.7193810592
0.7193810592
0.7193810592
0.7193810592
0.7193810592
0.7193810592
0.7193810592
0.7193810592
0.7193810592
0.7193810592
0.7193810592
0.7193810592
0.7193810592
0.7193810592
0.7193810592
0.7193810592
0.7193810592
0.7193810592
0.7193810592
0.7193810592
0.7193810592
0.7193810592
0.7193810592
0.7193810592
0.7193810592
0.7193810592
0.7193810592
0.7193810592
0.7193810592
0.7193810592
0.7193810592
0.7193810592
0.7193810592
0.7193810592
0.7193810592
0.7193810592
0.7193810592
0.7193810592
0.7193810592
0.7193810592
0.7193810592
0.7193810592
0.7193810592
0.7193810592
0.7193810592
0.7193810592
0.7193810592
0.7193810592
0.7193810592
0.7193810592
0.7193810592
0.7193810592
0.7193810592
0.7193810592
0.7193810592
0.7193810592
0.7193810592
0.7193810591
0.7193810591
0.7193810591
0.719381059
0.719381059
0.7193810588
0.7193810586
0.7193810583
0.7193810578
0.7193810572
0.7193810562
0.7193810549
0.7193810531
0.7193810506
0.7193810472
0.7193810425
0.7193810409
0.7193810405
0.71938104
0.7193810396
0.7193810392
0.7193810387
0.7193810382
0.7193810378
0.7193810373
0.7193810368
0.7193810363
0.7193810357
0.7193810352
0.7193810347
0.7193810341
0.7193810335
0.719381033
0.7193810324
0.7193810318
0.7193810312
0.7193810305
0.7193810299
0.7193810292
0.7193810286
0.7193810279
0.7193810272
0.7193810265
0.7193810257
0.719381025
0.7193810242
0.7193810235
0.7193810227
0.7193810219
0.7193810211
0.7193810202
0.7193810194
0.7193810185
0.7193810176
0.7193810167
0.7193810158
0.7193810148
0.7193810139
0.7193810129
0.7193810119
0.7193810108
0.7193810098
0.7193810087
0.7193810076
0.7193810065
0.7193810054
0.7193810043
0.7193810031
0.7193810019
0.7193810007
0.7193809994
0.7193809981
0.7193809969
0.7193809955
0.7193809942
0.7193809928
0.7193809914
0.71938099
0.7193809886
0.7193809871
0.7193809856
0.719380984
0.7193809825
0.7193809809
0.7193809793
0.7193809776
0.7193809759
0.7193809742
0.7193809725
0.7193809707
0.7193809689
0.719380967
0.7193809651
0.7193809632
0.7193809613
0.7193809593
0.7193809572
0.7193809552
0.7193809531
0.7193809509
0.7193809488
0.7193809465
0.7193809443
0.719380942
0.7193809396
0.7193809373
0.7193809348
0.7193809324
0.7193809298
0.7193809273
0.7193809247
0.719380922
0.7193809193
0.7193809166
0.7193809138
0.7193809109
0.719380908
0.7193809051
0.7193809021
0.719380899
0.7193808959
0.7193808927
0.7193808895
0.7193808862
0.7193808829
0.7193808795
0.7193808761
0.7193808726
0.719380869
0.7193808653
0.7193808616
0.7193808579
0.719380854
0.7193808501
0.7193808462
0.7193808421
0.719380838
0.7193808339
0.7193808296
0.7193808253
0.7193808209
0.7193808164
0.7193808119
0.7193808072
0.7193808025
0.7193807977
0.7193807929
0.7193807879
0.7193807829
0.7193807777
0.7193807725
0.7193807672
0.7193807618
0.7193807563
0.7193807507
0.719380745
0.7193807393
0.7193807334
0.7193807274
0.7193807213
0.7193807151
0.7193807088
0.7193807024
0.7193806959
0.7193806893
0.7193806825
0.7193806757
0.7193806687
0.7193806616
0.7193806544
0.719380647
0.7193806395
0.7193806319
0.7193806242
0.7193806163
0.7193806083
0.7193806002
0.7193805919
0.7193805835
0.7193805749
0.7193805662
0.7193805573
0.7193805482
0.719380539
0.7193805297
0.7193805202
0.7193805105
0.7193805006
0.7193804906
0.7193804804
0.71938047
0.7193804594
0.7193804487
0.7193804377
0.7193804266
0.7193804152
0.7193804037
0.7193803919
0.7193803799
0.7193803677
0.7193803553
0.7193803427
0.7193803298
0.7193803168
0.7193803034
0.7193802899
0.719380276
0.719380262
0.7193802476
0.719380233
0.7193802182
0.719380203
0.7193801876
0.7193801719
0.7193801559
0.7193801396
0.719380123
0.719380106
0.7193800888
0.7193800712
0.7193800533
0.7193800351
0.7193800165
0.7193799976
0.7193799783
0.7193799586
0.7193799385
0.7193799181
0.7193798972
0.7193798759
0.7193798543
0.7193798322
0.7193798096
0.7193797866
0.7193797632
0.7193797393
0.7193797149
0.71937969
0.7193796646
0.7193796388
0.7193796123
0.7193795854
0.7193795579
0.7193795298
0.7193795011
0.7193794719
0.719379442
0.7193794116
0.7193793804
0.7193793487
0.7193793162
0.7193792831
0.7193792493
0.7193792147
0.7193791794
0.7193791433
0.7193791065
0.7193790688
0.7193790304
0.7193789911
0.7193789509
0.7193789098
0.7193788679
0.719378825
0.7193787811
0.7193787362
0.7193786904
0.7193786435
0.7193785955
0.7193785464
0.7193784962
0.7193784449
0.7193783923
0.7193783386
0.7193782835
0.7193782272
0.7193781696
0.7193781106
0.7193780502
0.7193779884
0.719377925
0.7193778602
0.7193777938
0.7193777258
0.7193776561
0.7193775847
0.7193775115
0.7193774366
0.7193773598
0.7193772811
0.7193772004
0.7193771177
0.7193770329
0.719376946
0.7193768568
0.7193767654
0.7193766716
0.7193765755
0.7193764768
0.7193763756
0.7193762717
0.7193761652
0.7193760558
0.7193759435
0.7193758283
0.71937571
0.7193755885
0.7193754638
0.7193753357
0.7193752041
0.7193750689
0.7193749301
0.7193747874
0.7193746408
0.7193744902
0.7193743353
0.7193741761
0.7193740125
0.7193738442
0.7193736711
0.7193734931
0.71937331
0.7193731215
0.7193729277
0.7193727281
0.7193725227
0.7193723112
0.7193720934
0.7193718691
0.7193716381
0.7193714
0.7193711547
0.7193709018
0.7193706411
0.7193703722
0.7193700948
0.7193698087
0.7193695133
0.7193692084
0.7193688936
0.7193685683
0.7193682323
0.7193678849
0.7193675257
0.7193671541
0.7193667696
0.7193663715
0.7193659592
0.719365532
0.7193650892
0.7193646299
0.7193641532
0.7193636584
0.7193631443
0.7193626099
0.7193620541
0.7193614757
0.7193608732
0.7193602454
0.7193595905
0.7193589071
0.7193581932
0.7193574468
0.719356666
0.7193558484
0.7193549914
0.7193540924
0.7193531485
0.7193521563
0.7193511125
0.7193500133
0.7193488545
0.7193476316
0.7193463397
0.7193449735
0.7193435271
0.7193419941
0.7193403677
0.7193386401
0.719336803
0.7193348474
0.7193327634
0.71933054
0.7193281653
0.7193256264
0.7193229089
0.7193199973
0.7193168745
0.7193135218
0.7193099186
0.7193060426
0.719301869
0.719297371
0.719292519
0.7192872805
0.7192816201
0.7192754989
0.7192688742
0.7192616992
0.7192539227
0.7192454884
0.7192363348
0.7192263942
0.7192155926
0.7192038489
0.719191074
0.7191771706
0.7191620317
0.7191455404
0.7191275684
0.7191079755
0.719086608
0.7190632978
0.719037861
0.7190100966
0.7189797851
0.7189466866
0.7189105397
0.7188710591
0.7188279347
0.7187808286
0.7187293745
0.7186731749
0.7186117995
0.7185447837
0.7184716268
0.7183917908
0.718304699
0.7182097357
0.718106246
0.7179935362
0.7178708753
0.7177374972
0.7175926042
0.7174353717
0.7172649546
0.7170804947
0.7168811305
0.7166660085
0.7164342964
0.7161851979
0.7159179698
0.7156319403
0.7153265289
0.7150012674
0.7146558222
0.714290017
0.7139038555
0.7134975457
0.7130715225
0.7126264713
0.7121633517
0.7116834203
0.7111882545
0.7106797761
0.7101602749
0.7096324335
0.7090993528
0.7085645783
0.7080321301
0.7075065358
0.7069928729
0.7064967868
0.7060245879
0.7055832826
0.7051804382
0.7048272567
0.7045362919
0.7043208042
0.7041751585
0.7041206204
0.7041716353
0.7043398047
0.7046320912
0.7050477057
0.7055783573
0.70621498
0.7069529005
0.7077885921
0.7087247688
0.7097921742
0.7108944624
0.7120499954
0.713244769
0.7144792646
0.7156655934
0.7167985715
0.7178574643
0.7188222497
0.7196876546
0.7204480113
0.7211092998
0.7216797206
0.7221678721
0.7225813224
0.7229270715
0.723207949
0.7234298907
0.7235953759
0.7237096988
0.7237775754
0.7238041512
0.7237945533
0.7237528097
0.7236828486
0.7235911884
0.7234828967
0.7233622995
0.7232331193
0.7230984782
0.7229608914
0.7228223123
0.7226845246
0.7225530545
0.7224240923
0.7222960163
0.7221725683
0.7220537788
0.7219396693
0.7218302605
0.7217255564
0.7216256224
0.7215302324
0.7214393761
0.7213529234
0.7212707221
0.7211926064
0.7211184019
0.72104793
0.7209810117
0.7209174699
0.7208571312
0.7207998273
0.7207453958
0.7206936805
0.7206445321
0.7205978081
0.7205533727
0.7205110973
0.7204708598
0.7204325447
0.7203960428
0.7203612511
0.7203280727
0.720296416
0.720266195
0.7202373288
0.7202097413
0.7201833609
0.7201581205
0.7201339571
0.7201108114
0.7200886277
0.7200673539
0.720046941
0.7200273428
0.7200085161
0.7199904204
0.7199730174
0.7199562714
0.7199401485
0.7199246171
0.7199096474
0.7198952114
0.7198812827
0.7198678365
0.7198548494
0.7198422992
0.7198301654
0.7198184283
0.7198070695
0.7197960716
0.7197854181
0.7197750935
0.7197650832
0.7197553734
0.7197459508
0.7197368033
0.719727919
0.719719287
0.7197108966
0.7197027379
0.7196948016
0.7196870787
0.7196795607
0.7196722395
0.7196651077
0.7196581578
0.719651383
0.7196447767
0.7196383328
0.7196320452
0.7196259083
0.7196199169
0.7196140656
0.7196083497
0.7196027644
0.7195973054
0.7195919684
0.7195867492
0.7195816442
0.7195766494
0.7195717615
0.7195669769
0.7195622925
0.7195577052
0.7195532118
0.7195488097
0.7195444961
0.7195402682
0.7195361237
0.71953206
0.7195280749
0.7195241661
0.7195203314
0.7195165688
0.7195128763
0.719509252
0.719505694
0.7195022005
0.7194987698
0.7194954004
0.7194920905
0.7194888386
0.7194856433
0.7194825031
0.7194794167
0.7194763826
0.7194733997
0.7194704666
0.7194675822
0.7194647452
0.7194619546
0.7194592093
0.7194565081
0.7194538502
0.7194512344
0.7194486598
0.7194461255
0.7194436307
0.7194411743
0.7194387556
0.7194363737
0.7194340278
0.7194317172
0.7194294411
0.7194271988
0.7194249896
0.7194228127
0.7194206675
0.7194185534
0.7194164697
0.7194144158
0.7194123911
0.719410395
0.719408427
0.7194064865
0.719404573
0.7194026858
0.7194008247
0.7193989889
0.7193971781
0.7193953919
0.7193936296
0.7193918909
0.7193901754
0.7193884825
0.719386812
0.7193851634
0.7193835363
0.7193819303
0.7193803451
0.7193787803
0.7193772355
0.7193757103
0.7193742046
0.7193727178
0.7193712497
0.7193697999
0.7193683682
0.7193669543
0.7193655578
0.7193641785
0.719362816
0.7193614702
0.7193601407
0.7193588273
0.7193575296
0.7193562475
0.7193549808
0.719353729
0.7193524922
0.7193512698
0.7193500619
0.7193488681
0.7193476882
0.719346522
0.7193453693
0.7193442299
0.7193431036
0.7193419902
0.7193408894
0.7193398012
0.7193387253
0.7193376615
0.7193366096
0.7193355696
0.7193345411
0.7193335241
0.7193325183
0.7193315236
0.7193305399
0.719329567
0.7193286047
0.7193276529
0.7193267114
0.7193257801
0.7193248588
0.7193239474
0.7193230458
0.7193221538
0.7193212713
0.7193203982
0.7193195343
0.7193186794
0.7193178336
0.7193169966
0.7193161684
0.7193153487
0.7193145376
0.7193137348
0.7193129403
0.719312154
0.7193113757
0.7193106053
0.7193098428
0.7193090881
0.7193083409
0.7193076013
0.7193068691
0.7193061442
0.7193054266
0.7193047161
0.7193040127
0.7193033162
0.7193026266
0.7193019438
0.7193012676
0.7193005981
0.7192999351
0.7192992785
0.7192986283
0.7192979843
0.7192973466
0.7192967149
0.7192960893
0.7192954697
0.7192948559
0.719294248
0.7192936458
0.7192930493
0.7192924583
0.7192918729
0.719291293
0.7192907185
0.7192901492
0.7192895853
0.7192890265
0.7192884729
0.7192879243
0.7192873808
0.7192868422
0.7192863085
0.7192857796
0.7192852554
0.719284736
0.7192842212
0.7192837111
0.7192832054
0.7192827043
0.7192822076
0.7192817152
0.7192812272
0.7192807435
0.719280264
0.7192797886
0.7192793174
0.7192788502
0.7192783871
0.7192779279
0.7192774727
0.7192770214
0.7192765739
0.7192761301
0.7192756902
0.7192752539
0.7192748213
0.7192743923
0.7192739669
0.7192735449
0.7192731265
0.7192727116
0.7192723
0.7192718918
0.7192714869
0.7192710853
0.7192706869
0.7192702918
0.7192698998
0.719269511
0.7192691252
0.7192687426
0.7192683629
0.7192679862
0.7192676125
0.7192672417
0.7192668737
0.7192665087
0.7192661464
0.7192657869
0.7192654302
0.7192650761
0.7192647248
0.7192643761
0.71926403
0.7192636865
0.7192633456
0.7192630072
0.7192626713
0.7192623378
0.7192620068
0.7192616782
0.719261352
0.7192610281
0.7192607065
0.7192603872
0.7192600702
0.7192597555
0.7192594429
0.7192591325
0.7192588243
0.7192585182
0.7192582142
0.7192579123
0.7192576124
0.7192573146
0.7192570187
0.7192567249
0.7192564329
0.7192561429
0.7192558548
0.7192555686
0.7192552843
0.7192550017
0.719254721
0.7192544421
0.7192541649
0.7192538894
0.7192536157
0.7192533437
0.7192530733
0.7192528046
0.7192525375
0.719252272
0.7192520081
0.7192517458
0.719251485
0.7192512257
0.7192509679
0.7192507116
0.7192504568
0.7192502034
0.7192499515
0.7192497009
0.7192494517
0.7192492039
0.7192489574
0.7192487122
0.7192484684
0.7192482258
0.7192479845
0.7192477445
0.7192475057
0.7192472681
0.7192470317
0.7192467965
0.7192465624
0.7192463295
0.7192460977
0.719245867
0.7192456374
0.7192454089
0.7192451814
0.719244955
0.7192447296
0.7192445053
0.7192442819
0.7192440595
0.719243838
0.7192436175
0.719243398
0.7192431793
0.7192429616
0.7192427447
0.7192425287
0.7192423135
0.7192420992
0.7192418858
0.7192416731
0.7192414612
0.7192412501
0.7192410398
0.7192408302
0.7192406214
0.7192404133
0.7192402059
0.7192399992
0.7192397931
0.7192395878
0.7192393831
0.719239179
0.7192389756
0.7192387728
0.7192385706
0.719238369
0.719238168
0.7192379675
0.7192377676
0.7192375682
0.7192373694
0.719237171
0.7192369732
0.7192367759
0.719236579
0.7192363826
0.7192361867
0.7192359912
0.7192357961
0.7192356014
0.7192354072
0.7192352133
0.7192350198
0.7192348267
0.719234634
0.7192344416
0.7192342495
0.7192340578
0.7192338664
0.7192336752
0.7192334844
0.7192332938
0.7192331035
0.7192329135
0.7192327237
0.7192325341
0.7192323447
0.7192321556
0.7192319666
0.7192317778
0.7192315892
0.7192314008
0.7192312125
0.7192310243
0.7192308363
0.7192306483
0.7192304605
0.7192302727
0.719230085
0.7192298973
0.7192297097
0.7192295222
0.7192293346
0.719229147
0.7192289594
0.7192287718
0.7192285842
0.7192283964
0.7192282086
0.7192280207
0.7192278327
0.7192276445
0.7192274562
0.7192272677
0.719227079
0.7192268901
0.7192267009
0.7192265115
0.7192263219
0.7192261319
0.7192259415
0.7192257508
0.7192255597
0.7192253682
0.7192251763
0.7192249838
0.7192247908
0.7192245973
0.7192244032
0.7192242084
0.719224013
0.7192238168
0.7192236199
0.7192234221
0.7192232235
0.7192230239
0.7192228234
0.7192226218
0.719222419
0.7192222151
0.71922201
0.7192218035
0.7192215957
0.7192213863
0.7192211754
0.7192209628
0.719220748
0.7192189796
0.7192163481
0.7192137115
0.7192110479
0.7192083596
0.7192056467
0.7192029093
0.7192001476
0.7191973624
0.7191945547
0.7191917259
0.7191888776
0.7191860118
0.7191831303
0.7191802353
0.7191773291
0.7191744136
0.719171491
0.7191685631
0.7191656316
0.7191626977
0.7191597626
0.7191568269
0.7191538907
0.7191509539
0.7191480156
0.7191450743
0.7191421281
0.7191391744
0.7191362099
0.7191332305
0.7191302316
0.7191272078
0.7191241528
0.7191210597
0.7191179209
0.719114728
0.7191114718
0.7191081423
0.719104729
0.7191012205
0.7190976049
0.7190938698
0.7190900022
0.7190859887
0.7190818158
0.7190774697
0.7190729368
0.7190682039
0.719063258
0.7190580871
0.7190526802
0.7190470274
0.7190411206
0.7190349535
0.7190285221
0.7190218247
0.7190148625
0.7190076395
0.7190001633
0.7189924442
0.7189844965
0.7189763377
0.7189679887
0.7189594739
0.7189508208
0.7189420598
0.7189332239
0.7189243482
0.7189154697
0.7189066264
0.7188978571
0.7188892006
0.7188806952
0.718872378
0.7188642844
0.7188564474
0.7188488972
0.7188416607
0.7188347611
0.7188282174
0.7188220446
0.7188162533
0.7188108495
0.718805835
0.7188012075
0.7187969608
0.7187930849
0.7187895667
0.7187863905
0.7187835382
0.71878099
0.7187787246
0.7187767204
0.718774955
0.7187734065
0.7187720534
0.718770875
0.7187698519
0.718768966
0.7187682005
0.7187675403
0.7187669721
0.7187664838
0.718766065
0.7187657069
0.7187654015
0.7187651425
0.7187649241
0.7187647415
0.7187645908
0.7187644682
0.7187643707
0.7187642954
0.7187642398
0.7187642013
0.7187641778
0.7187641669
0.7187641666
0.7187641748
0.7187641896
0.7187642092
0.7187642319
0.7187642563
0.7187642809
0.7187643047
0.7187643268
0.7187643465
0.7187643631
0.7187643766
0.7187643867
0.7187643935
0.7187643972
0.7187643981
0.7187643966
0.7187643931
0.7187643881
0.718764382
0.7187643754
0.7187643686
0.718764362
0.7187643559
0.7187643505
0.718764346
0.7187643425
0.7187643399
0.7187643383
0.7187643377
0.7187643378
0.7187643386
0.71876434
0.7187643418
0.7187643438
0.718764346
0.7187643482
0.7187643503
0.7187643523
0.7187643542
0.7187643558
0.7187643572
0.7187643583
0.7187643592
0.71876436
0.7187643605
0.7187643609
0.7187643612
0.7187643614
0.7187643615
0.7187643616
0.7187643616
0.7187643616
0.7187643615
0.7187643614
0.7187643614
0.7187643613
0.7187643612
0.718764361
0.7187643609
0.7187643608
0.7187643606
0.7187643605
0.7187643604
0.7187643603
0.7187643603
0.7187643603
0.7187643603
0.7187643604
0.7187643605
0.7187643607
0.718764361
0.7187643613
0.7187643616
0.718764362
0.7187643625
0.7187643629
0.7187643634
0.7187643639
0.7187643644
0.7187643649
0.7187643654
0.7187643658
0.7187643663
0.7187643667
0.718764367
0.7187643673
0.7187643676
0.7187643679
0.718764368
0.7187643682
0.7187643683
0.7187643683
0.7187643683
0.7187643683
0.7187643682
0.7187643681
0.7187643679
0.7187643677
0.7187643676
0.7187643674
0.7187643671
0.7187643669
0.7187643667
0.7187643665
0.7187643662
0.718764366
0.7187643658
0.7187643656
0.7187643654
0.7187643652
0.7187643651
0.7187643649
0.7187643648
0.7187643647
0.7187643645
0.7187643645
0.7187643644
0.7187643643
0.7187643642
0.7187643642
0.7187643642
0.7187643642
0.7187643641
0.7187643641
0.7187643641
0.7187643642
0.7187643642
0.7187643642
0.7187643642
0.7187643641
0.7187643641
)
;

boundaryField
{
    inlet
    {
        type            fixedValue;
        value           uniform 1;
    }
    outlet
    {
        type            zeroGradient;
    }
    wall
    {
        type            empty;
    }
}


// ************************************************************************* //
