/*--------------------------------*- C++ -*----------------------------------*\
  =========                 |
  \\      /  F ield         | OpenFOAM: The Open Source CFD Toolbox
   \\    /   O peration     | Website:  https://openfoam.org
    \\  /    A nd           | Version:  7
     \\/     M anipulation  |
\*---------------------------------------------------------------------------*/
FoamFile
{
    version     2.0;
    format      ascii;
    class       volScalarField;
    location    "0.000558243009";
    object      NC3H7COCH3;
}
// * * * * * * * * * * * * * * * * * * * * * * * * * * * * * * * * * * * * * //

dimensions      [0 0 0 0 0 0 0];

internalField   nonuniform List<scalar> 
1500
(
4.026670954e-21
1.566167441e-20
3.219687084e-20
4.803279408e-20
5.960466998e-20
6.651065282e-20
7.001127433e-20
7.155558147e-20
7.215871149e-20
7.237006197e-20
7.243726029e-20
7.24568299e-20
7.246209205e-20
7.246340751e-20
7.246371504e-20
7.246378261e-20
7.246379663e-20
7.246379939e-20
7.24637999e-20
7.246379999e-20
7.246380001e-20
7.246380001e-20
7.246380001e-20
7.246380001e-20
7.246380001e-20
7.246380001e-20
7.246380001e-20
7.246380001e-20
7.246380001e-20
7.246380001e-20
7.246380001e-20
7.246380001e-20
7.246380001e-20
7.246380001e-20
7.246380001e-20
7.246380001e-20
7.246380001e-20
7.246380001e-20
7.246380001e-20
7.246380001e-20
7.246380001e-20
7.246380001e-20
7.246380001e-20
7.246380001e-20
7.246380001e-20
7.246380001e-20
7.246380001e-20
7.246380001e-20
7.246380001e-20
7.246380001e-20
7.246380001e-20
7.246380001e-20
7.246380001e-20
7.246380001e-20
7.246380001e-20
7.246380001e-20
7.246380001e-20
7.246380001e-20
7.246380001e-20
7.246380001e-20
7.246380001e-20
7.246380001e-20
7.246380001e-20
7.246380001e-20
7.246380001e-20
7.246380001e-20
7.246380001e-20
7.246380001e-20
7.246380001e-20
7.246380001e-20
7.246380001e-20
7.246380001e-20
7.246380001e-20
7.246380001e-20
7.246380001e-20
7.246380001e-20
7.246380001e-20
7.246380001e-20
7.246380001e-20
7.246380001e-20
7.246380001e-20
7.246380001e-20
7.246380001e-20
7.246380001e-20
7.246380001e-20
7.246380001e-20
7.246380001e-20
7.246380001e-20
7.246380001e-20
7.246380001e-20
7.246380001e-20
7.246380001e-20
7.246380001e-20
7.246380001e-20
7.246380001e-20
7.246380001e-20
7.246380001e-20
7.246380001e-20
7.246380001e-20
7.246380001e-20
7.246380001e-20
7.246380001e-20
7.246380001e-20
7.246380001e-20
7.246380001e-20
7.246380001e-20
7.246380001e-20
7.246380001e-20
7.246380001e-20
7.246380001e-20
7.246380001e-20
7.246380001e-20
7.246380001e-20
7.246380001e-20
7.246380001e-20
7.246380001e-20
7.246380001e-20
7.246380001e-20
7.246380001e-20
7.246380001e-20
7.246380001e-20
7.246380001e-20
7.246380001e-20
7.246380001e-20
7.246380001e-20
7.246380001e-20
7.246380001e-20
7.246380001e-20
7.246380001e-20
7.246380001e-20
7.246380001e-20
7.246380001e-20
7.246380001e-20
7.246380001e-20
7.246380001e-20
7.246380001e-20
7.246380001e-20
7.246380001e-20
7.246380001e-20
7.246380001e-20
7.246380001e-20
7.246380001e-20
7.246380001e-20
7.246380001e-20
7.246380001e-20
7.246380001e-20
7.246380001e-20
7.246380001e-20
7.246380001e-20
7.246380001e-20
7.246380001e-20
7.246380001e-20
7.246380001e-20
7.246380001e-20
7.246380001e-20
7.246380001e-20
7.246380001e-20
7.246380001e-20
7.246380001e-20
7.246380001e-20
7.246380001e-20
7.246380001e-20
7.246380001e-20
7.246380001e-20
7.246380001e-20
7.246380001e-20
7.246380001e-20
7.246380001e-20
7.246380001e-20
7.246380001e-20
7.246380001e-20
7.246380001e-20
7.246380001e-20
7.246380001e-20
7.246380001e-20
7.246380001e-20
7.246380001e-20
7.246380001e-20
7.246380001e-20
7.246380001e-20
7.246380001e-20
7.246380001e-20
7.246380001e-20
7.246380001e-20
7.246380001e-20
7.246380001e-20
7.246380001e-20
7.246380001e-20
7.246380001e-20
7.246380001e-20
7.246380001e-20
7.246380001e-20
7.246380001e-20
7.246380001e-20
7.246380001e-20
7.246380001e-20
7.246380001e-20
7.246380001e-20
7.246380001e-20
7.246380001e-20
7.246380001e-20
7.246380001e-20
7.246380001e-20
7.246380001e-20
7.246380001e-20
7.246380001e-20
7.246380001e-20
7.246380001e-20
7.246380001e-20
7.246380001e-20
7.246380001e-20
7.246380001e-20
7.246380001e-20
7.246380001e-20
7.246380001e-20
7.246380001e-20
7.246380001e-20
7.246380001e-20
7.246380001e-20
7.246380001e-20
7.246380001e-20
7.246380001e-20
7.246380001e-20
7.246380001e-20
7.246380001e-20
7.246380001e-20
7.246380001e-20
7.246380001e-20
7.246380001e-20
7.246380001e-20
7.246380001e-20
7.246380001e-20
7.246380001e-20
7.246380001e-20
7.246380002e-20
7.246380002e-20
7.246380002e-20
7.246380003e-20
7.246380005e-20
7.246380012e-20
7.246380037e-20
7.246380148e-20
7.246380628e-20
7.246382566e-20
7.246389765e-20
7.246414057e-20
7.246487476e-20
7.246681862e-20
7.247112712e-20
7.247814436e-20
7.24798072e-20
7.248045597e-20
7.248113203e-20
7.248183674e-20
7.248257109e-20
7.248333618e-20
7.248413326e-20
7.248496371e-20
7.248582898e-20
7.248673061e-20
7.248767018e-20
7.248864935e-20
7.248966985e-20
7.249073348e-20
7.249184213e-20
7.249299778e-20
7.249420249e-20
7.249545844e-20
7.249676787e-20
7.249813317e-20
7.249955681e-20
7.25010414e-20
7.250258964e-20
7.250420439e-20
7.250588863e-20
7.250764549e-20
7.250947824e-20
7.251139031e-20
7.251338529e-20
7.251546697e-20
7.251763928e-20
7.251990639e-20
7.252227264e-20
7.25247426e-20
7.252732106e-20
7.253001306e-20
7.253282387e-20
7.253575906e-20
7.253882445e-20
7.254202617e-20
7.254537068e-20
7.254886475e-20
7.255251552e-20
7.255633049e-20
7.256031757e-20
7.256448508e-20
7.256884179e-20
7.257339694e-20
7.257816028e-20
7.258314208e-20
7.258835318e-20
7.259380504e-20
7.259950973e-20
7.260548002e-20
7.261172941e-20
7.261827217e-20
7.262512338e-20
7.263229902e-20
7.2639816e-20
7.264769221e-20
7.265594664e-20
7.26645994e-20
7.267367182e-20
7.268318654e-20
7.269316758e-20
7.270364046e-20
7.271463227e-20
7.272617183e-20
7.273828976e-20
7.275101864e-20
7.276439314e-20
7.277845015e-20
7.279322897e-20
7.280877145e-20
7.282512219e-20
7.284232873e-20
7.286044176e-20
7.287951533e-20
7.289960711e-20
7.292077863e-20
7.294309557e-20
7.296662803e-20
7.299145085e-20
7.301764397e-20
7.304529274e-20
7.307448831e-20
7.310532806e-20
7.313791602e-20
7.317236329e-20
7.320878857e-20
7.324731865e-20
7.328808897e-20
7.333124419e-20
7.337693879e-20
7.342533776e-20
7.347661724e-20
7.353096528e-20
7.358858257e-20
7.364968329e-20
7.371449592e-20
7.378326416e-20
7.385624786e-20
7.393372401e-20
7.401598776e-20
7.410335351e-20
7.419615606e-20
7.429475178e-20
7.439951985e-20
7.451086353e-20
7.462921154e-20
7.475501941e-20
7.488877098e-20
7.503097983e-20
7.518219092e-20
7.534298211e-20
7.551396589e-20
7.569579102e-20
7.588914435e-20
7.609475258e-20
7.631338413e-20
7.654585103e-20
7.679301083e-20
7.70557686e-20
7.733507891e-20
7.763194788e-20
7.794743521e-20
7.82826563e-20
7.86387843e-20
7.901705225e-20
7.941875515e-20
7.984525211e-20
8.029796841e-20
8.077839761e-20
8.128810356e-20
8.18287225e-20
8.240196494e-20
8.300961769e-20
8.365354568e-20
8.433569378e-20
8.505808849e-20
8.582283966e-20
8.663214194e-20
8.748827624e-20
8.839361104e-20
8.935060357e-20
9.03618008e-20
9.142984034e-20
9.255745113e-20
9.374745401e-20
9.500276197e-20
9.632638037e-20
9.772140682e-20
9.919103091e-20
1.007385336e-19
1.023672867e-19
1.040807514e-19
1.058824775e-19
1.077761013e-19
1.097653445e-19
1.118540113e-19
1.140459865e-19
1.163452329e-19
1.187557878e-19
1.212817602e-19
1.23927327e-19
1.266967292e-19
1.295942674e-19
1.32624298e-19
1.357912278e-19
1.39099509e-19
1.42553634e-19
1.4615813e-19
1.499175524e-19
1.538364794e-19
1.579195051e-19
1.621712328e-19
1.665962687e-19
1.711992141e-19
1.759846586e-19
1.809571727e-19
1.861212999e-19
1.914815492e-19
1.970423873e-19
2.028082307e-19
2.087834378e-19
2.149723007e-19
2.213790375e-19
2.280077843e-19
2.348625871e-19
2.419473943e-19
2.492660488e-19
2.568222803e-19
2.646196985e-19
2.726617852e-19
2.809518878e-19
2.894932125e-19
2.98288818e-19
3.073416096e-19
3.166543331e-19
3.262295699e-19
3.36069732e-19
3.461770577e-19
3.565536078e-19
3.672012616e-19
3.781217151e-19
3.893164777e-19
4.00786871e-19
4.125340281e-19
4.245588923e-19
4.368622183e-19
4.494445727e-19
4.623063357e-19
4.75447704e-19
4.888686933e-19
5.025691431e-19
5.165487211e-19
5.30806929e-19
5.45343109e-19
5.601564513e-19
5.752460022e-19
5.906106738e-19
6.062492536e-19
6.221604159e-19
6.38342734e-19
6.547946928e-19
6.715147036e-19
6.885011187e-19
7.057522476e-19
7.232663748e-19
7.410417774e-19
7.590767451e-19
7.773696008e-19
7.959187222e-19
8.147225652e-19
8.337796877e-19
8.530887755e-19
8.726486689e-19
8.924583911e-19
9.125171774e-19
9.328245065e-19
9.533801324e-19
9.741841188e-19
9.95236874e-19
1.016539188e-18
1.038092271e-18
1.059897795e-18
1.081957931e-18
1.104275399e-18
1.126853509e-18
1.149696211e-18
1.17280814e-18
1.196194671e-18
1.219861973e-18
1.243817057e-18
1.268067842e-18
1.292623207e-18
1.317493059e-18
1.342688389e-18
1.368221344e-18
1.394105291e-18
1.420354893e-18
1.446986175e-18
1.474016607e-18
1.501465177e-18
1.529352482e-18
1.557700804e-18
1.586534187e-18
1.615878532e-18
1.645761693e-18
1.676213566e-18
1.707266191e-18
1.738953849e-18
1.771313164e-18
1.804383203e-18
1.838205587e-18
1.872824593e-18
1.908287266e-18
1.94464353e-18
1.9819463e-18
2.020251607e-18
2.059618715e-18
2.10011025e-18
2.141792325e-18
2.184734682e-18
2.22901082e-18
2.27469812e-18
2.321877989e-18
2.370636005e-18
2.421062068e-18
2.473250543e-18
2.527300421e-18
2.583315474e-18
2.64140442e-18
2.70168109e-18
2.764264599e-18
2.829279533e-18
2.896856126e-18
2.967130456e-18
3.040244646e-18
3.116347071e-18
3.195592573e-18
3.27814269e-18
3.364165892e-18
3.453837829e-18
3.547341592e-18
3.64486799e-18
3.746615837e-18
3.852792257e-18
3.963613012e-18
4.079302841e-18
4.200095822e-18
4.326235763e-18
4.457976605e-18
4.595582866e-18
4.739330099e-18
4.889505391e-18
5.046407894e-18
5.210349385e-18
5.381654879e-18
5.560663271e-18
5.747728034e-18
5.943217972e-18
6.147518021e-18
6.361030129e-18
6.584174199e-18
6.817389129e-18
7.061133941e-18
7.31588904e-18
7.582157605e-18
7.860467158e-18
8.151371345e-18
8.455451973e-18
8.773321394e-18
9.105625304e-18
9.453046083e-18
9.816306851e-18
1.019617644e-17
1.059347554e-17
1.100908448e-17
1.144395305e-17
1.189911301e-17
1.237569441e-17
1.287494652e-17
1.33982653e-17
1.394722936e-17
1.452364714e-17
1.512961925e-17
1.576762073e-17
1.644061e-17
1.715217329e-17
1.790671629e-17
1.870971872e-17
1.95680727e-17
2.04905327e-17
2.148831418e-17
2.25758901e-17
2.377205122e-17
2.510131749e-17
2.659581713e-17
2.829778855e-17
3.026291166e-17
3.256474363e-17
3.530062521e-17
3.859954512e-17
4.263261134e-17
4.762699292e-17
5.38844818e-17
6.180620437e-17
7.192551829e-17
8.495180314e-17
1.018287483e-16
1.238119315e-16
1.525720648e-16
1.903323864e-16
2.400514761e-16
3.056664847e-16
3.924167083e-16
5.072739927e-16
6.595151657e-16
8.614832541e-16
1.129599586e-15
1.485709234e-15
1.958869255e-15
2.587724948e-15
3.423666769e-15
4.535023308e-15
6.012628769e-15
7.977213257e-15
1.058920925e-14
1.406175927e-14
1.867796223e-14
2.481372912e-14
3.29680561e-14
4.38030988e-14
5.819718619e-14
7.731490064e-14
1.026996426e-13
1.363957826e-13
1.811096934e-13
2.404217982e-13
3.190654434e-13
4.232931382e-13
5.613567763e-13
7.44136213e-13
9.85960425e-13
1.305677932e-12
1.728048779e-12
2.285549834e-12
3.020709167e-12
3.989114623e-12
5.263277175e-12
6.937571919e-12
9.134529204e-12
1.201280559e-11
1.57772288e-11
2.069138153e-11
2.709326388e-11
3.541465012e-11
4.620482714e-11
6.015946379e-11
7.815540293e-11
1.012921832e-10
1.309410739e-10
1.688023348e-10
2.169712863e-10
2.780135847e-10
3.550498535e-10
4.518495187e-10
5.729333592e-10
7.236839244e-10
9.104626126e-10
1.140731856e-09
1.423180525e-09
1.767850329e-09
2.186260576e-09
2.691528124e-09
3.298478541e-09
4.023743263e-09
4.885835684e-09
5.905196895e-09
7.10419692e-09
8.507074358e-09
1.013978901e-08
1.20297556e-08
1.420541724e-08
1.669560629e-08
1.952862775e-08
2.272948492e-08
2.632589995e-08
3.032575989e-08
3.477017992e-08
3.965614464e-08
4.496618403e-08
5.048003014e-08
5.619818994e-08
6.198842776e-08
6.767686047e-08
7.306235953e-08
7.7946137e-08
8.216650535e-08
8.562020177e-08
8.825609852e-08
9.006996934e-08
9.109970313e-08
9.143752044e-08
9.116263467e-08
9.040541414e-08
8.927636074e-08
8.784308438e-08
8.622312007e-08
8.443626733e-08
8.250862143e-08
8.042937327e-08
7.825569448e-08
7.597347896e-08
7.359510173e-08
7.11342468e-08
6.860644702e-08
6.602938018e-08
6.339659232e-08
6.077497103e-08
5.814178068e-08
5.555099597e-08
5.300249124e-08
5.051095879e-08
4.808887795e-08
4.574694908e-08
4.344980109e-08
4.120917803e-08
3.90588235e-08
3.700191346e-08
3.503971846e-08
3.317217272e-08
3.139801376e-08
2.971476905e-08
2.811896114e-08
2.660935677e-08
2.522801767e-08
2.392272521e-08
2.266380439e-08
2.148033423e-08
2.036712455e-08
1.931896025e-08
1.833110879e-08
1.739940342e-08
1.652185537e-08
1.569216564e-08
1.490891459e-08
1.416933073e-08
1.347081795e-08
1.28109336e-08
1.218737647e-08
1.159797938e-08
1.104070338e-08
1.051363243e-08
1.001496775e-08
9.543022058e-09
9.096213512e-09
8.673059634e-09
8.272171341e-09
7.892247191e-09
7.532067691e-09
7.190490136e-09
6.866443597e-09
6.558924209e-09
6.26699077e-09
5.989760633e-09
5.726405852e-09
5.476149585e-09
5.238262732e-09
5.012060805e-09
4.796901001e-09
4.59217947e-09
4.397328776e-09
4.211815526e-09
4.035138157e-09
3.86682488e-09
3.70643176e-09
3.553540928e-09
3.407758917e-09
3.268715107e-09
3.136060281e-09
3.009465273e-09
2.888619715e-09
2.773230861e-09
2.663022494e-09
2.557733907e-09
2.457118947e-09
2.360945131e-09
2.268992809e-09
2.181054393e-09
2.096933631e-09
2.016444925e-09
1.939412701e-09
1.865670814e-09
1.795061994e-09
1.727437322e-09
1.662655749e-09
1.600583635e-09
1.541094323e-09
1.484067737e-09
1.42939001e-09
1.376953127e-09
1.326654594e-09
1.27839713e-09
1.232088376e-09
1.187640615e-09
1.144970522e-09
1.103998918e-09
1.064650542e-09
1.026853838e-09
9.905407574e-10
9.55646563e-10
9.221096559e-10
8.898714062e-10
8.588759947e-10
8.29070265e-10
8.004035826e-10
7.728277033e-10
7.462966484e-10
7.207665873e-10
6.961957268e-10
6.725442067e-10
6.497740007e-10
6.27848824e-10
6.067340446e-10
5.863966006e-10
5.668049218e-10
5.479288551e-10
5.297395947e-10
5.122096158e-10
4.953126114e-10
4.790234333e-10
4.633180359e-10
4.481734226e-10
4.335675959e-10
4.19479509e-10
4.058890214e-10
3.927768552e-10
3.801245549e-10
3.679144485e-10
3.561296114e-10
3.447538313e-10
3.337715752e-10
3.231679584e-10
3.129287146e-10
3.030401678e-10
2.934892053e-10
2.842632525e-10
2.753502484e-10
2.667386229e-10
2.584172745e-10
2.503755497e-10
2.426032235e-10
2.350904798e-10
2.27827894e-10
2.208064159e-10
2.140173531e-10
2.074523558e-10
2.011034018e-10
1.949627828e-10
1.890230904e-10
1.832772039e-10
1.777182776e-10
1.723397297e-10
1.671352306e-10
1.62098693e-10
1.57224261e-10
1.525063013e-10
1.479393934e-10
1.43518321e-10
1.392380636e-10
1.350937886e-10
1.310808433e-10
1.271947481e-10
1.234311891e-10
1.197860115e-10
1.162552132e-10
1.128349388e-10
1.095214737e-10
1.063112385e-10
1.032007835e-10
1.001867838e-10
9.726603445e-11
9.443544533e-11
9.169203716e-11
8.903293692e-11
8.645537382e-11
8.395667531e-11
8.153426334e-11
7.918565069e-11
7.690843756e-11
7.470030818e-11
7.255902766e-11
7.048243893e-11
6.846845979e-11
6.651508009e-11
6.462035906e-11
6.278242269e-11
6.099946129e-11
5.926972704e-11
5.759153177e-11
5.596324472e-11
5.438329044e-11
5.285014678e-11
5.136234292e-11
4.991845753e-11
4.851711695e-11
4.715699348e-11
4.583680373e-11
4.455530701e-11
4.331130381e-11
4.210363433e-11
4.093117706e-11
3.979284744e-11
3.868759652e-11
3.761440972e-11
3.657230562e-11
3.556033481e-11
3.457757875e-11
3.362314868e-11
3.269618462e-11
3.179585436e-11
3.092135248e-11
3.007189944e-11
2.92467407e-11
2.844514583e-11
2.766640773e-11
2.690984178e-11
2.617478514e-11
2.546059594e-11
2.476665262e-11
2.409235324e-11
2.343711477e-11
2.280037254e-11
2.218157955e-11
2.15802059e-11
2.099573825e-11
2.042767922e-11
1.987554691e-11
1.933887434e-11
1.881720901e-11
1.831011236e-11
1.781715938e-11
1.733793811e-11
1.687204924e-11
1.64191057e-11
1.597873225e-11
1.555056511e-11
1.513425155e-11
1.47294496e-11
1.433582764e-11
1.39530641e-11
1.358084714e-11
1.321887431e-11
1.286685229e-11
1.252449654e-11
1.21915311e-11
1.186768825e-11
1.155270828e-11
1.124633924e-11
1.094833666e-11
1.065846337e-11
1.037648923e-11
1.010219092e-11
9.835351721e-12
9.575761326e-12
9.323215624e-12
9.077516514e-12
8.838471718e-12
8.605894599e-12
8.379603987e-12
8.159424012e-12
7.945183939e-12
7.736718011e-12
7.533865296e-12
7.336469539e-12
7.144379019e-12
6.957446413e-12
6.775528659e-12
6.598486826e-12
6.426185994e-12
6.258495125e-12
6.095286952e-12
5.936437862e-12
5.781827786e-12
5.631340095e-12
5.484861494e-12
5.342281921e-12
5.203494454e-12
5.068395217e-12
4.936883285e-12
4.808860599e-12
4.684231884e-12
4.562904558e-12
4.444788663e-12
4.329796776e-12
4.217843946e-12
4.10884761e-12
4.002727531e-12
3.899405726e-12
3.798806398e-12
3.700855879e-12
3.60548256e-12
3.512616834e-12
3.42219104e-12
3.334139402e-12
3.248397976e-12
3.164904601e-12
3.083598838e-12
3.00442193e-12
2.927316747e-12
2.852227742e-12
2.779100905e-12
2.707883717e-12
2.63852511e-12
2.570975423e-12
2.505186363e-12
2.441110965e-12
2.378703557e-12
2.317919716e-12
2.258716242e-12
2.201051116e-12
2.144883469e-12
2.090173548e-12
2.036882688e-12
1.984973278e-12
1.93440873e-12
1.885153455e-12
1.837172829e-12
1.790433172e-12
1.744901716e-12
1.700546581e-12
1.657336753e-12
1.615242056e-12
1.574233131e-12
1.53428141e-12
1.495359099e-12
1.45743915e-12
1.420495248e-12
1.384501783e-12
1.349433835e-12
1.315267153e-12
1.281978138e-12
1.249543824e-12
1.217941859e-12
1.18715049e-12
1.157148549e-12
1.127915428e-12
1.099431076e-12
1.071675972e-12
1.044631118e-12
1.018278022e-12
9.925986836e-13
9.67575582e-13
9.431916618e-13
9.194303205e-13
8.962753965e-13
8.737111566e-13
8.517222847e-13
8.302938702e-13
8.09411397e-13
7.890607329e-13
7.692281191e-13
7.4990016e-13
7.310638134e-13
7.127063811e-13
6.948154994e-13
6.7737913e-13
6.603855514e-13
6.438233504e-13
6.276814135e-13
6.11948919e-13
5.966153293e-13
5.81670383e-13
5.671040875e-13
5.529067121e-13
5.390687806e-13
5.255810648e-13
5.124345773e-13
4.99620566e-13
4.871305069e-13
4.749560985e-13
4.630892557e-13
4.515221041e-13
4.402469744e-13
4.292563969e-13
4.18543096e-13
4.080999855e-13
3.979201631e-13
3.879969059e-13
3.783236654e-13
3.688940628e-13
3.597018848e-13
3.507410791e-13
3.4200575e-13
3.334901544e-13
3.251886979e-13
3.170959305e-13
3.092065432e-13
3.01515364e-13
2.940173544e-13
2.867076059e-13
2.795813367e-13
2.726338879e-13
2.65860721e-13
2.592574141e-13
2.528196592e-13
2.46543259e-13
2.404241243e-13
2.344582708e-13
2.286418166e-13
2.229709795e-13
2.174420742e-13
2.120515101e-13
2.067957886e-13
2.016715007e-13
1.966753249e-13
1.918040244e-13
1.870544456e-13
1.824235153e-13
1.779082391e-13
1.735056989e-13
1.692130513e-13
1.650275255e-13
1.609464214e-13
1.569671078e-13
1.530870207e-13
1.493036612e-13
1.456145944e-13
1.420174473e-13
1.385099073e-13
1.350897207e-13
1.317546911e-13
1.285026779e-13
1.253315952e-13
1.222394098e-13
1.192241404e-13
1.162838558e-13
1.13416674e-13
1.106207606e-13
1.07894328e-13
1.052356335e-13
1.026429791e-13
1.001147093e-13
9.764921104e-14
9.524491172e-14
9.290027873e-14
9.06138182e-14
8.838407404e-14
8.6209627e-14
8.40890937e-14
8.202112571e-14
8.000440867e-14
7.803766139e-14
7.611963505e-14
7.424911233e-14
7.24249066e-14
7.06458612e-14
6.891084856e-14
6.721876959e-14
6.556855284e-14
6.395915387e-14
6.23895545e-14
6.085876219e-14
5.936580937e-14
5.790975279e-14
5.64896729e-14
5.510467326e-14
5.375387994e-14
5.243644095e-14
5.115152569e-14
4.989832436e-14
4.867604748e-14
4.748392535e-14
4.632120754e-14
4.518716241e-14
4.40810766e-14
4.300225459e-14
4.195001826e-14
4.092370637e-14
3.992267421e-14
3.894629312e-14
3.799395008e-14
3.706504735e-14
3.615900201e-14
3.527524561e-14
3.44132238e-14
3.357239594e-14
3.275223474e-14
3.195222593e-14
3.117186787e-14
3.041067126e-14
2.966815878e-14
2.894386479e-14
2.823733495e-14
2.754812599e-14
2.687580532e-14
2.621995081e-14
2.558015041e-14
2.49560019e-14
2.434711259e-14
2.375309903e-14
2.317358672e-14
2.260820984e-14
2.205661092e-14
2.151844064e-14
2.099335746e-14
2.048102741e-14
1.998112373e-14
1.949332667e-14
1.901732313e-14
1.85528064e-14
1.809947585e-14
1.765703663e-14
1.722519936e-14
1.68036798e-14
1.639219851e-14
1.599048056e-14
1.559825509e-14
1.521525503e-14
1.484121664e-14
1.447587917e-14
1.411898437e-14
1.377027611e-14
1.342949989e-14
1.309640233e-14
1.277073067e-14
1.245223216e-14
1.214065344e-14
1.18357398e-14
1.153723422e-14
1.124487619e-14
1.095840013e-14
1.067753307e-14
1.040199153e-14
1.01314771e-14
9.86567052e-15
9.604224467e-15
9.346756052e-15
7.280279143e-15
5.193009372e-15
3.697465318e-15
2.629159873e-15
1.867051104e-15
1.324064627e-15
9.376963054e-16
6.631352496e-16
4.682920172e-16
3.302135754e-16
2.325018709e-16
1.634565073e-16
1.147398419e-16
8.041848165e-17
5.627582405e-17
3.931955088e-17
2.742924927e-17
1.910459233e-17
1.328561935e-17
9.22464438e-18
6.395094346e-18
4.426714455e-18
3.059589372e-18
2.111562045e-18
1.455183292e-18
1.001430751e-18
6.882271322e-19
4.723573186e-19
3.237872715e-19
2.21678407e-19
1.515959109e-19
1.035570748e-19
7.066908989e-20
4.818006092e-20
3.281899125e-20
2.233758122e-20
1.519266334e-20
1.032649675e-20
7.015010376e-21
4.763156512e-21
3.232864646e-21
2.193516261e-21
1.487951353e-21
1.009169397e-21
6.843820146e-22
4.641116673e-22
3.147488759e-22
2.134764922e-22
1.448118689e-22
9.825349151e-23
6.668071698e-23
4.526647666e-23
3.073900364e-23
2.088087607e-23
1.418924015e-23
9.645463234e-24
6.559019337e-24
4.461707965e-24
3.035991272e-24
2.06644542e-24
1.406871492e-24
9.580125871e-25
6.524537327e-25
4.44387257e-25
3.026737705e-25
2.061358772e-25
1.403649492e-25
9.555363673e-26
6.50238788e-26
4.42268366e-26
3.006305541e-26
2.042011567e-26
1.38580301e-26
9.395076259e-27
6.361930171e-27
4.302279914e-27
2.905081601e-27
1.958367201e-27
1.317740827e-27
8.848873165e-28
5.929095087e-28
3.963240666e-28
2.642362329e-28
1.75683959e-28
1.164629469e-28
7.696231548e-29
5.069010864e-29
3.326940112e-29
2.175543743e-29
1.417161274e-29
9.194553681e-30
5.94070063e-30
3.821915578e-30
2.447977294e-30
1.56087918e-30
9.906640297e-31
6.258145971e-31
3.934612877e-31
2.461945357e-31
1.533085621e-31
9.500928986e-32
5.859842585e-32
3.597018579e-32
2.197659574e-32
1.336502612e-32
8.091083629e-33
4.876523612e-33
2.926317033e-33
1.748554934e-33
1.040446138e-33
6.165538545e-34
3.638750747e-34
2.138796636e-34
1.25202576e-34
7.298892758e-35
4.236968974e-35
2.448745367e-35
1.40876553e-35
8.065663148e-36
4.594441654e-36
2.603103311e-36
1.466515453e-36
8.212857108e-37
4.570990361e-37
2.527996799e-37
1.389395034e-37
7.592156718e-38
4.129817723e-38
2.242190938e-38
1.221401034e-38
6.740473132e-39
3.831403543e-39
2.299470892e-39
1.500436154e-39
1.087812312e-39
8.769596166e-40
7.70421764e-40
7.172651467e-40
6.911391224e-40
6.785517326e-40
6.726672089e-40
6.700587183e-40
6.690265035e-40
6.687363524e-40
6.687832247e-40
6.689727256e-40
6.692129049e-40
6.694612657e-40
6.69699066e-40
6.699189505e-40
6.701190165e-40
6.702999515e-40
6.704636285e-40
6.706123921e-40
6.70748678e-40
6.708748006e-40
6.709928335e-40
6.711045459e-40
6.712113771e-40
6.713144398e-40
6.714145425e-40
6.715122263e-40
6.716078098e-40
6.717014369e-40
6.717931241e-40
6.718828029e-40
6.719703559e-40
6.720556441e-40
6.721385261e-40
6.722188684e-40
6.722965488e-40
6.723714529e-40
6.724434679e-40
6.725124731e-40
6.725783302e-40
6.726408752e-40
6.726999126e-40
6.727552131e-40
6.728065148e-40
6.728535293e-40
6.728959504e-40
6.729334663e-40
6.72965774e-40
6.729925948e-40
6.7301369e-40
6.730288755e-40
6.730380352e-40
6.730411317e-40
6.730382144e-40
6.730294239e-40
6.730149939e-40
6.729952496e-40
6.729706028e-40
6.729415452e-40
6.729086392e-40
6.728725069e-40
6.728338184e-40
6.727932787e-40
6.727516153e-40
6.727095644e-40
6.726678593e-40
6.726272176e-40
6.725883304e-40
6.725518518e-40
6.7251839e-40
6.72488499e-40
6.724626723e-40
6.724413367e-40
6.724248492e-40
6.724134934e-40
6.724074789e-40
6.72406941e-40
6.724119419e-40
6.72422474e-40
6.724384628e-40
6.724597725e-40
6.724862107e-40
6.725175353e-40
6.725534609e-40
6.725936659e-40
6.726377992e-40
6.726854875e-40
6.727363421e-40
6.727899644e-40
6.728459529e-40
6.729039071e-40
6.729634334e-40
6.73024148e-40
6.730856807e-40
6.73147678e-40
6.732098044e-40
6.732717451e-40
6.733332064e-40
6.733939174e-40
6.734536301e-40
6.735121201e-40
6.735691864e-40
6.736246521e-40
6.736783641e-40
6.737301925e-40
6.737800312e-40
6.738277967e-40
6.738734281e-40
6.739168863e-40
6.739581528e-40
6.739972268e-40
6.740341157e-40
6.740687823e-40
6.741008166e-40
6.741272442e-40
)
;

boundaryField
{
    inlet
    {
        type            fixedValue;
        value           uniform 0;
    }
    outlet
    {
        type            zeroGradient;
    }
    wall
    {
        type            empty;
    }
}


// ************************************************************************* //
