/*--------------------------------*- C++ -*----------------------------------*\
  =========                 |
  \\      /  F ield         | OpenFOAM: The Open Source CFD Toolbox
   \\    /   O peration     | Website:  https://openfoam.org
    \\  /    A nd           | Version:  7
     \\/     M anipulation  |
\*---------------------------------------------------------------------------*/
FoamFile
{
    version     2.0;
    format      ascii;
    class       volScalarField;
    location    "0.000558243009";
    object      NC3H7COCH2;
}
// * * * * * * * * * * * * * * * * * * * * * * * * * * * * * * * * * * * * * //

dimensions      [0 0 0 0 0 0 0];

internalField   nonuniform List<scalar> 
1500
(
4.803245627e-18
1.868962322e-17
3.843118076e-17
5.735299204e-17
7.119379891e-17
7.946309811e-17
8.365974666e-17
8.551338893e-17
8.623824944e-17
8.649258771e-17
8.657356131e-17
8.659717445e-17
8.660353259e-17
8.660512424e-17
8.660549685e-17
8.660557885e-17
8.660559588e-17
8.660559923e-17
8.660559986e-17
8.660559997e-17
8.660559999e-17
8.66056e-17
8.66056e-17
8.66056e-17
8.66056e-17
8.66056e-17
8.66056e-17
8.66056e-17
8.66056e-17
8.66056e-17
8.66056e-17
8.66056e-17
8.66056e-17
8.66056e-17
8.66056e-17
8.66056e-17
8.66056e-17
8.66056e-17
8.66056e-17
8.66056e-17
8.66056e-17
8.66056e-17
8.66056e-17
8.66056e-17
8.66056e-17
8.66056e-17
8.66056e-17
8.66056e-17
8.66056e-17
8.66056e-17
8.66056e-17
8.66056e-17
8.66056e-17
8.66056e-17
8.66056e-17
8.66056e-17
8.66056e-17
8.66056e-17
8.66056e-17
8.66056e-17
8.66056e-17
8.66056e-17
8.66056e-17
8.66056e-17
8.66056e-17
8.66056e-17
8.66056e-17
8.66056e-17
8.66056e-17
8.66056e-17
8.66056e-17
8.66056e-17
8.66056e-17
8.66056e-17
8.66056e-17
8.66056e-17
8.66056e-17
8.66056e-17
8.66056e-17
8.66056e-17
8.66056e-17
8.66056e-17
8.66056e-17
8.66056e-17
8.66056e-17
8.66056e-17
8.66056e-17
8.66056e-17
8.66056e-17
8.66056e-17
8.66056e-17
8.66056e-17
8.66056e-17
8.66056e-17
8.66056e-17
8.66056e-17
8.66056e-17
8.66056e-17
8.66056e-17
8.66056e-17
8.66056e-17
8.66056e-17
8.66056e-17
8.66056e-17
8.66056e-17
8.66056e-17
8.66056e-17
8.66056e-17
8.66056e-17
8.66056e-17
8.66056e-17
8.66056e-17
8.66056e-17
8.66056e-17
8.66056e-17
8.66056e-17
8.66056e-17
8.66056e-17
8.66056e-17
8.66056e-17
8.66056e-17
8.66056e-17
8.66056e-17
8.66056e-17
8.66056e-17
8.66056e-17
8.66056e-17
8.66056e-17
8.66056e-17
8.66056e-17
8.66056e-17
8.66056e-17
8.66056e-17
8.66056e-17
8.66056e-17
8.66056e-17
8.66056e-17
8.66056e-17
8.66056e-17
8.66056e-17
8.66056e-17
8.66056e-17
8.66056e-17
8.66056e-17
8.66056e-17
8.66056e-17
8.66056e-17
8.66056e-17
8.66056e-17
8.66056e-17
8.66056e-17
8.66056e-17
8.66056e-17
8.66056e-17
8.66056e-17
8.66056e-17
8.66056e-17
8.66056e-17
8.66056e-17
8.66056e-17
8.66056e-17
8.66056e-17
8.66056e-17
8.66056e-17
8.66056e-17
8.66056e-17
8.66056e-17
8.66056e-17
8.66056e-17
8.66056e-17
8.66056e-17
8.66056e-17
8.66056e-17
8.66056e-17
8.66056e-17
8.66056e-17
8.66056e-17
8.66056e-17
8.66056e-17
8.66056e-17
8.66056e-17
8.66056e-17
8.66056e-17
8.66056e-17
8.66056e-17
8.66056e-17
8.66056e-17
8.66056e-17
8.66056e-17
8.66056e-17
8.66056e-17
8.66056e-17
8.66056e-17
8.66056e-17
8.66056e-17
8.66056e-17
8.66056e-17
8.66056e-17
8.66056e-17
8.66056e-17
8.66056e-17
8.66056e-17
8.66056e-17
8.66056e-17
8.66056e-17
8.66056e-17
8.66056e-17
8.66056e-17
8.66056e-17
8.66056e-17
8.66056e-17
8.66056e-17
8.66056e-17
8.66056e-17
8.66056e-17
8.66056e-17
8.66056e-17
8.66056e-17
8.66056e-17
8.66056e-17
8.66056e-17
8.66056e-17
8.66056e-17
8.66056e-17
8.66056e-17
8.66056e-17
8.66056e-17
8.66056e-17
8.66056e-17
8.66056e-17
8.66056e-17
8.66056e-17
8.66056e-17
8.66056e-17
8.66056e-17
8.660560001e-17
8.660560001e-17
8.660560002e-17
8.660560005e-17
8.660560014e-17
8.66056005e-17
8.660560207e-17
8.660560869e-17
8.660563482e-17
8.660572959e-17
8.6606042e-17
8.660696545e-17
8.660936009e-17
8.661456848e-17
8.662292379e-17
8.662495769e-17
8.662573536e-17
8.662654549e-17
8.662738969e-17
8.662826915e-17
8.662918517e-17
8.663013921e-17
8.663113291e-17
8.663216798e-17
8.663324624e-17
8.663436955e-17
8.663553988e-17
8.663675928e-17
8.663802987e-17
8.663935389e-17
8.664073367e-17
8.664217167e-17
8.664367043e-17
8.664523263e-17
8.664686108e-17
8.664855871e-17
8.665032859e-17
8.665217394e-17
8.665409811e-17
8.665610466e-17
8.665819726e-17
8.66603798e-17
8.666265633e-17
8.666503112e-17
8.666750864e-17
8.667009356e-17
8.66727908e-17
8.667560553e-17
8.667854316e-17
8.668160937e-17
8.668481014e-17
8.668815175e-17
8.669164078e-17
8.669528419e-17
8.669908925e-17
8.670306365e-17
8.670721546e-17
8.671155317e-17
8.671608574e-17
8.672082259e-17
8.672577367e-17
8.673094946e-17
8.6736361e-17
8.674201994e-17
8.674793861e-17
8.675412999e-17
8.676060781e-17
8.676738657e-17
8.677448162e-17
8.678190918e-17
8.678968641e-17
8.679783149e-17
8.680636367e-17
8.681530334e-17
8.682467211e-17
8.683449291e-17
8.684479006e-17
8.685558936e-17
8.686691822e-17
8.687880575e-17
8.689128287e-17
8.690438247e-17
8.69181395e-17
8.693259116e-17
8.694777703e-17
8.696373924e-17
8.698052266e-17
8.699817508e-17
8.701674743e-17
8.703629396e-17
8.705687254e-17
8.707854485e-17
8.71013767e-17
8.712543826e-17
8.715080441e-17
8.717755506e-17
8.720577548e-17
8.723555667e-17
8.726699578e-17
8.73001965e-17
8.733526953e-17
8.737233302e-17
8.741151313e-17
8.745294448e-17
8.749677081e-17
8.754314549e-17
8.759223222e-17
8.764420566e-17
8.769925216e-17
8.775757048e-17
8.78193726e-17
8.788488454e-17
8.795434725e-17
8.802801747e-17
8.810616877e-17
8.81890925e-17
8.827709888e-17
8.837051808e-17
8.84697014e-17
8.857502249e-17
8.868687856e-17
8.880569175e-17
8.893191048e-17
8.906601083e-17
8.920849807e-17
8.935990817e-17
8.952080935e-17
8.969180375e-17
8.987352911e-17
9.006666048e-17
9.027191202e-17
9.049003884e-17
9.072183889e-17
9.096815484e-17
9.122987608e-17
9.150794073e-17
9.180333764e-17
9.211710848e-17
9.245034985e-17
9.280421538e-17
9.317991787e-17
9.357873145e-17
9.400199372e-17
9.445110792e-17
9.492754508e-17
9.543284615e-17
9.596862413e-17
9.653656615e-17
9.713843554e-17
9.777607382e-17
9.845140266e-17
9.91664258e-17
9.99232308e-17
1.007239909e-16
1.015709665e-16
1.024665067e-16
1.034130512e-16
1.044131307e-16
1.054693689e-16
1.065844831e-16
1.077612851e-16
1.09002682e-16
1.103116766e-16
1.116913677e-16
1.131449504e-16
1.146757156e-16
1.162870502e-16
1.179824361e-16
1.197654496e-16
1.216397602e-16
1.236091296e-16
1.256774097e-16
1.27848541e-16
1.301265502e-16
1.325155481e-16
1.350197267e-16
1.376433562e-16
1.403907814e-16
1.432664186e-16
1.462747512e-16
1.494203256e-16
1.527077469e-16
1.561416737e-16
1.597268131e-16
1.634679156e-16
1.673697689e-16
1.714371922e-16
1.7567503e-16
1.800881455e-16
1.846814141e-16
1.894597161e-16
1.9442793e-16
1.995909247e-16
2.049535524e-16
2.105206406e-16
2.162969846e-16
2.222873393e-16
2.284964115e-16
2.349288516e-16
2.415892455e-16
2.484821067e-16
2.55611868e-16
2.629828736e-16
2.705993711e-16
2.784655034e-16
2.865853013e-16
2.949626758e-16
3.036014105e-16
3.12505155e-16
3.216774173e-16
3.311215576e-16
3.408407823e-16
3.508381374e-16
3.611165035e-16
3.716785904e-16
3.825269327e-16
3.936638852e-16
4.050916197e-16
4.168121216e-16
4.288271873e-16
4.411384224e-16
4.537472403e-16
4.666548614e-16
4.798623133e-16
4.933704314e-16
5.071798604e-16
5.212910565e-16
5.357042902e-16
5.504196506e-16
5.654370493e-16
5.807562267e-16
5.963767577e-16
6.122980591e-16
6.285193982e-16
6.450399014e-16
6.618585644e-16
6.789742635e-16
6.963857673e-16
7.140917502e-16
7.32090806e-16
7.503814635e-16
7.689622028e-16
7.878314724e-16
8.069877077e-16
8.264293511e-16
8.461548725e-16
8.661627912e-16
8.864516998e-16
9.070202881e-16
9.278673693e-16
9.48991907e-16
9.703930438e-16
9.920701309e-16
1.01402276e-15
1.036250794e-15
1.058754406e-15
1.081534109e-15
1.104590796e-15
1.127925779e-15
1.151540831e-15
1.175438224e-15
1.199620776e-15
1.224091895e-15
1.248855628e-15
1.273916707e-15
1.299280604e-15
1.324953582e-15
1.350942747e-15
1.37725611e-15
1.403902642e-15
1.430892337e-15
1.458236271e-15
1.485946674e-15
1.51403699e-15
1.54252195e-15
1.571417643e-15
1.600741592e-15
1.630512829e-15
1.660751973e-15
1.691481324e-15
1.722724934e-15
1.754508686e-15
1.786860395e-15
1.819809894e-15
1.853389131e-15
1.887632269e-15
1.922575781e-15
1.958258549e-15
1.994721974e-15
2.032010071e-15
2.070169581e-15
2.109250077e-15
2.149304076e-15
2.190387148e-15
2.232558036e-15
2.275878779e-15
2.320414837e-15
2.36623521e-15
2.413412583e-15
2.462023452e-15
2.512148244e-15
2.563871465e-15
2.617281836e-15
2.672472446e-15
2.729540898e-15
2.78858946e-15
2.849725227e-15
2.913060278e-15
2.978711847e-15
3.046802492e-15
3.117460279e-15
3.19081896e-15
3.267018172e-15
3.346203631e-15
3.428527342e-15
3.514147819e-15
3.603230304e-15
3.695947011e-15
3.79247737e-15
3.893008291e-15
3.997734437e-15
4.106858511e-15
4.220591565e-15
4.33915332e-15
4.462772504e-15
4.591687218e-15
4.726145312e-15
4.866404795e-15
5.012734262e-15
5.165413353e-15
5.32473324e-15
5.490997141e-15
5.664520876e-15
5.845633455e-15
6.034677704e-15
6.232010942e-15
6.438005696e-15
6.653050481e-15
6.877550632e-15
7.111929203e-15
7.356627945e-15
7.612108375e-15
7.878852942e-15
8.157366319e-15
8.448176842e-15
8.751838124e-15
9.068930895e-15
9.400065107e-15
9.745882388e-15
1.010705894e-14
1.048430895e-14
1.087838882e-14
1.129010218e-14
1.172030622e-14
1.216991953e-14
1.263993201e-14
1.313141745e-14
1.364554958e-14
1.418362283e-14
1.474707906e-14
1.533754229e-14
1.595686393e-14
1.660718187e-14
1.729099772e-14
1.801127811e-14
1.87715876e-14
1.957626331e-14
2.043064454e-14
2.134137483e-14
2.231679976e-14
2.336749056e-14
2.450693407e-14
2.57524417e-14
2.712634723e-14
2.865758549e-14
3.038377304e-14
3.235395071e-14
3.463219859e-14
3.730240109e-14
4.047452777e-14
4.429291211e-14
4.89471632e-14
5.468654733e-14
6.183894172e-14
7.083581279e-14
8.224513155e-14
9.681474529e-14
1.155295228e-13
1.396866407e-13
1.709947604e-13
2.117046651e-13
2.647813142e-13
3.341304233e-13
4.24896806e-13
5.438571517e-13
6.999370494e-13
9.04891441e-13
1.174199993e-12
1.52824502e-12
1.993860759e-12
2.606370549e-12
3.412264792e-12
4.472720143e-12
5.868222552e-12
7.704638006e-12
1.012118087e-11
1.330086788e-11
1.748422572e-11
2.298725409e-11
3.022494929e-11
3.974208681e-11
5.225346898e-11
6.869649916e-11
9.029978589e-11
1.18672561e-10
1.559210753e-10
2.047998922e-10
2.689082264e-10
3.529442813e-10
4.630340612e-10
6.071555205e-10
7.956843393e-10
1.042094275e-09
1.363853129e-09
1.783565083e-09
2.330421712e-09
3.04203742e-09
3.966760558e-09
5.166568777e-09
6.720676215e-09
8.730000077e-09
1.132265443e-08
1.466065811e-08
1.894805975e-08
2.444069442e-08
3.145778942e-08
4.039563047e-08
5.174347891e-08
6.610189536e-08
8.420357231e-08
1.069367087e-07
1.353708742e-07
1.707852145e-07
2.146987475e-07
2.689024003e-07
3.354923504e-07
4.169041662e-07
5.159472023e-07
6.358386973e-07
7.802370433e-07
9.532737533e-07
1.159583736e-06
1.404333611e-06
1.693247942e-06
2.032633634e-06
2.429402664e-06
2.89109436e-06
3.425898354e-06
4.042680381e-06
4.751013556e-06
5.561217198e-06
6.484401597e-06
7.53203138e-06
8.718282791e-06
1.005327363e-05
1.155948355e-05
1.324447828e-05
1.510205503e-05
1.703000709e-05
1.89404114e-05
2.060337788e-05
2.167660693e-05
2.181719823e-05
2.090148648e-05
1.912894854e-05
1.684799414e-05
1.433642928e-05
1.177691662e-05
9.307646915e-06
6.988542096e-06
5.033185452e-06
3.447868958e-06
2.24886426e-06
1.389458067e-06
8.33861442e-07
4.888024401e-07
2.836615071e-07
1.634785725e-07
9.517826157e-08
5.582113993e-08
3.299822492e-08
1.966025304e-08
1.18055739e-08
7.146633628e-09
4.339624005e-09
2.66189556e-09
1.642094848e-09
1.023385215e-09
6.43339214e-10
4.085080786e-10
2.625991752e-10
1.715136873e-10
1.134328455e-10
7.631645218e-11
5.268351685e-11
3.747380418e-11
2.755029641e-11
2.096288807e-11
1.649562086e-11
1.338920126e-11
1.116680899e-11
9.5281365e-12
8.318257663e-12
7.367634932e-12
6.583608022e-12
5.935999499e-12
5.388771029e-12
4.917407236e-12
4.505066471e-12
4.139973068e-12
3.814294288e-12
3.52076375e-12
3.255241983e-12
3.014062405e-12
2.794281749e-12
2.593479561e-12
2.409624388e-12
2.240982653e-12
2.086055139e-12
1.943531554e-12
1.812257166e-12
1.691207644e-12
1.579469587e-12
1.476225109e-12
1.380739371e-12
1.292350325e-12
1.210460094e-12
1.134527703e-12
1.064062831e-12
9.986203988e-13
9.377958472e-13
8.812210055e-13
8.285604401e-13
7.795082225e-13
7.337850573e-13
6.911357221e-13
6.5132678e-13
6.141445324e-13
5.793931824e-13
5.468931856e-13
5.164797664e-13
4.880015824e-13
4.613195203e-13
4.363056085e-13
4.128420363e-13
3.908202655e-13
3.701402279e-13
3.507095974e-13
3.324431305e-13
3.152620681e-13
2.990935923e-13
2.838703326e-13
2.695299171e-13
2.560145634e-13
2.43270707e-13
2.312486617e-13
2.199023098e-13
2.091888202e-13
1.990683895e-13
1.895040067e-13
1.804612365e-13
1.719080221e-13
1.63814504e-13
1.561528536e-13
1.488971211e-13
1.420230955e-13
1.35508176e-13
1.293312539e-13
1.234726042e-13
1.179137848e-13
1.126375451e-13
1.07627741e-13
1.028692561e-13
9.834792996e-14
9.405049108e-14
8.996449553e-14
8.607826986e-14
8.238085845e-14
7.886197483e-14
7.551195653e-14
7.23217233e-14
6.928273839e-14
6.638697266e-14
6.362687123e-14
6.09953226e-14
5.848562988e-14
5.609148417e-14
5.380693972e-14
5.162639088e-14
4.954455062e-14
4.755643058e-14
4.565732241e-14
4.384278049e-14
4.210860572e-14
4.045083047e-14
3.886570448e-14
3.734968178e-14
3.589940836e-14
3.451171076e-14
3.318358539e-14
3.191218842e-14
3.069482651e-14
2.952894799e-14
2.841213463e-14
2.734209403e-14
2.631665234e-14
2.533374755e-14
2.439142314e-14
2.348782214e-14
2.262118157e-14
2.178982719e-14
2.099216861e-14
2.022669463e-14
1.949196895e-14
1.878662605e-14
1.810936739e-14
1.745895776e-14
1.683422193e-14
1.62340414e-14
1.565735144e-14
1.510313821e-14
1.457043612e-14
1.405832528e-14
1.356592916e-14
1.30924123e-14
1.263697825e-14
1.219886752e-14
1.177735575e-14
1.137175187e-14
1.098139648e-14
1.060566021e-14
1.024394226e-14
9.895668942e-15
9.560292366e-15
9.237289156e-15
8.926159255e-15
8.626424781e-15
8.337628952e-15
8.059335069e-15
7.791125543e-15
7.532600987e-15
7.283379342e-15
7.043095058e-15
6.811398311e-15
6.587954266e-15
6.372442372e-15
6.164555696e-15
5.964000295e-15
5.770494609e-15
5.583768896e-15
5.403564687e-15
5.229634273e-15
5.061740216e-15
4.899654884e-15
4.74316001e-15
4.592046268e-15
4.446112878e-15
4.305167225e-15
4.169024492e-15
4.037507322e-15
3.910445487e-15
3.787675576e-15
3.669040697e-15
3.554390197e-15
3.443579387e-15
3.336469289e-15
3.232926387e-15
3.1328224e-15
3.03603405e-15
2.942442857e-15
2.851934932e-15
2.764400786e-15
2.679735144e-15
2.597836768e-15
2.518608293e-15
2.441956059e-15
2.367789966e-15
2.296023321e-15
2.226572702e-15
2.159357821e-15
2.0943014e-15
2.031329046e-15
1.970369135e-15
1.9113527e-15
1.854213327e-15
1.798887047e-15
1.745312244e-15
1.69342956e-15
1.643181803e-15
1.594513864e-15
1.547372636e-15
1.501706931e-15
1.457467409e-15
1.414606505e-15
1.37307836e-15
1.332838755e-15
1.293845045e-15
1.256056104e-15
1.219432262e-15
1.183935251e-15
1.149528153e-15
1.116175346e-15
1.083842457e-15
1.052496313e-15
1.022104898e-15
9.926373091e-16
9.640637131e-16
9.363553085e-16
9.094842867e-16
8.834237948e-16
8.581479006e-16
8.336315585e-16
8.098505773e-16
7.867815886e-16
7.644020166e-16
7.426900498e-16
7.216246127e-16
7.011853393e-16
6.813525478e-16
6.621072155e-16
6.434309555e-16
6.253059938e-16
6.077151472e-16
5.906418029e-16
5.740698974e-16
5.579838978e-16
5.423687826e-16
5.272100238e-16
5.124935698e-16
4.982058283e-16
4.843336505e-16
4.708643158e-16
4.577855164e-16
4.450853436e-16
4.327522736e-16
4.207751544e-16
4.091431927e-16
3.978459422e-16
3.868732911e-16
3.762154509e-16
3.658629457e-16
3.55806601e-16
3.46037534e-16
3.365471433e-16
3.273270998e-16
3.183693373e-16
3.096660437e-16
3.012096526e-16
2.929928349e-16
2.850084911e-16
2.772497436e-16
2.697099291e-16
2.623825919e-16
2.552614768e-16
2.483405225e-16
2.416138553e-16
2.35075783e-16
2.287207886e-16
2.225435251e-16
2.165388097e-16
2.107016183e-16
2.050270806e-16
1.99510475e-16
1.94147224e-16
1.889328892e-16
1.83863167e-16
1.789338844e-16
1.741409947e-16
1.694805732e-16
1.649488139e-16
1.605420253e-16
1.562566266e-16
1.520891448e-16
1.480362107e-16
1.440945558e-16
1.402610094e-16
1.365324951e-16
1.329060281e-16
1.293787122e-16
1.259477373e-16
1.226103761e-16
1.193639824e-16
1.162059877e-16
1.131338994e-16
1.101452983e-16
1.07237836e-16
1.044092332e-16
1.016572773e-16
9.897982035e-17
9.63747772e-17
9.384012343e-17
9.137389354e-17
8.897417922e-17
8.663912749e-17
8.436693912e-17
8.215586694e-17
8.000421425e-17
7.791033336e-17
7.587262404e-17
7.38895321e-17
7.195954805e-17
7.008120569e-17
6.825308087e-17
6.647379018e-17
6.474198978e-17
6.305637415e-17
6.141567503e-17
5.981866025e-17
5.826413267e-17
5.675092915e-17
5.527791955e-17
5.384400572e-17
5.244812059e-17
5.108922724e-17
4.976631801e-17
4.847841362e-17
4.722456242e-17
4.600383944e-17
4.481534574e-17
4.365820757e-17
4.253157564e-17
4.143462447e-17
4.036655161e-17
3.932657704e-17
3.83139425e-17
3.732791081e-17
3.636776535e-17
3.543280938e-17
3.452236553e-17
3.363577518e-17
3.2772398e-17
3.193161134e-17
3.111280977e-17
3.03154046e-17
2.953882335e-17
2.878250931e-17
2.804592113e-17
2.732853231e-17
2.662983083e-17
2.594931871e-17
2.528651163e-17
2.464093853e-17
2.401214124e-17
2.339967411e-17
2.280310365e-17
2.222200822e-17
2.165597764e-17
2.110461292e-17
2.056752591e-17
2.004433903e-17
1.953468492e-17
1.903820621e-17
1.85545552e-17
1.808339361e-17
1.762439232e-17
1.717723109e-17
1.674159834e-17
1.631719089e-17
1.590371372e-17
1.550087979e-17
1.510840976e-17
1.47260318e-17
1.435348139e-17
1.399050111e-17
1.363684044e-17
1.329225559e-17
1.295650926e-17
1.262937054e-17
1.231061468e-17
1.200002292e-17
1.169738236e-17
1.140248575e-17
1.11151314e-17
1.083512296e-17
1.056226933e-17
1.029638446e-17
1.003728727e-17
9.784801476e-18
9.538755476e-18
9.298982213e-18
9.065319057e-18
8.837607683e-18
8.615693956e-18
8.399427812e-18
8.188663154e-18
7.98325774e-18
7.783073082e-18
7.58797434e-18
7.397830229e-18
7.212512919e-18
7.031897942e-18
6.855864104e-18
6.684293393e-18
6.517070899e-18
6.354084723e-18
6.195225903e-18
6.040388332e-18
5.889468681e-18
5.742366327e-18
5.598983275e-18
5.459224097e-18
5.322995855e-18
5.190208036e-18
5.060772492e-18
4.934603372e-18
4.811617061e-18
4.691732125e-18
4.574869247e-18
4.460951174e-18
4.349902663e-18
4.241650425e-18
4.136123074e-18
4.033251079e-18
3.932966709e-18
3.835203992e-18
3.739898665e-18
3.646988129e-18
3.556411405e-18
3.468109091e-18
3.382023322e-18
3.298097728e-18
3.216277394e-18
3.136508823e-18
3.058739898e-18
2.982919847e-18
2.908999205e-18
2.83692978e-18
2.766664624e-18
2.698157994e-18
2.631365324e-18
2.566243193e-18
2.502749297e-18
2.440842415e-18
2.380482385e-18
2.321630077e-18
2.264247359e-18
2.208297079e-18
2.153743036e-18
2.100549952e-18
2.048683453e-18
1.998110042e-18
1.948797078e-18
1.900712752e-18
1.853826064e-18
1.808106806e-18
1.763525536e-18
1.720053563e-18
1.677662921e-18
1.636326356e-18
1.596017305e-18
1.556709874e-18
1.518378827e-18
1.480999561e-18
1.444548097e-18
1.409001056e-18
1.374335648e-18
1.340529651e-18
1.307561403e-18
1.275409777e-18
1.244054176e-18
1.213474509e-18
1.183651186e-18
1.154565096e-18
1.126197598e-18
1.098530503e-18
1.071546066e-18
1.045226968e-18
1.019556308e-18
9.94517583e-19
9.700946812e-19
9.462718665e-19
9.230337664e-19
9.003653591e-19
8.78251961e-19
8.56679214e-19
8.356330725e-19
8.150997906e-19
7.950659088e-19
7.755182409e-19
7.564438605e-19
7.378300874e-19
7.196644733e-19
7.019347871e-19
6.846289999e-19
6.677352696e-19
6.512419249e-19
6.351374481e-19
6.19410458e-19
6.040496917e-19
5.890439854e-19
5.743822544e-19
5.600534728e-19
5.460466506e-19
5.323508106e-19
5.189549622e-19
5.05848072e-19
4.930190287e-19
4.80456599e-19
4.681493712e-19
4.560856738e-19
4.44253475e-19
4.326402362e-19
4.212327362e-19
4.100168735e-19
3.989775257e-19
3.104398824e-19
2.210216112e-19
1.571005242e-19
1.115262058e-19
7.907198769e-20
5.598830203e-20
3.958978098e-20
2.795525493e-20
1.971166076e-20
1.387869153e-20
9.757236364e-21
6.849309877e-21
4.800632814e-21
3.359489073e-21
2.347274915e-21
1.637439065e-21
1.140441398e-21
7.930222997e-22
5.505569791e-22
3.816149121e-22
2.640939132e-22
1.824766274e-22
1.25886689e-22
8.671338348e-23
5.964009949e-23
4.095913888e-23
2.808923667e-23
1.923642253e-23
1.31560208e-23
8.985937353e-24
6.130070205e-24
4.176931083e-24
2.842937424e-24
1.932971511e-24
1.312995742e-24
8.910741436e-25
6.042423177e-25
4.094400613e-25
2.772600774e-25
1.876456942e-25
1.269348437e-25
8.583231894e-26
5.802098278e-26
3.921204577e-26
2.649654275e-26
1.790309702e-26
1.209675424e-26
8.174139063e-27
5.524288372e-27
3.734204937e-27
2.524824156e-27
1.707639255e-27
1.155342571e-27
7.819687339e-28
5.294716371e-28
3.586556656e-28
2.430510405e-28
1.647787246e-28
1.117592911e-28
7.58290812e-29
5.146881491e-29
3.494548863e-29
2.373311574e-29
1.612163103e-29
1.095275788e-29
7.441558071e-30
5.055820424e-30
3.434506245e-30
2.332574025e-30
1.583633722e-30
1.074652833e-30
7.288163108e-31
4.9390472e-31
3.34409663e-31
2.261815021e-31
1.527942294e-31
1.030752872e-31
6.942619314e-32
4.668038881e-32
3.132614712e-32
2.097772271e-32
1.401537407e-32
9.340312985e-33
6.207884177e-33
4.114021387e-33
2.717980419e-33
1.789783244e-33
1.174487436e-33
7.679134278e-34
5.001698543e-34
3.244841313e-34
2.096399415e-34
1.348647192e-34
8.637964878e-35
5.50762944e-35
3.495559133e-35
2.208173856e-35
1.388316728e-35
8.686901609e-36
5.409451991e-36
3.352380395e-36
2.067631801e-36
1.269198124e-36
7.754360126e-37
4.715778801e-37
2.854878524e-37
1.720631696e-37
1.032511769e-37
6.169478931e-38
3.670997008e-38
2.175356627e-38
1.283827613e-38
7.546036902e-39
4.417310385e-39
2.575118092e-39
1.494828421e-39
8.639249702e-40
4.970132122e-40
2.845552571e-40
1.620903218e-40
9.183622668e-41
5.173780348e-41
2.897441711e-41
1.61261302e-41
8.91858663e-42
4.901681375e-42
2.67845516e-42
1.456967683e-42
7.910268288e-43
4.308995083e-43
2.377969672e-43
1.351669861e-43
8.112141905e-44
5.29319758e-44
3.837483589e-44
3.093603489e-44
2.717738072e-44
2.530197132e-44
2.438017567e-44
2.393600872e-44
2.372831132e-44
2.363618909e-44
2.359967745e-44
2.358934741e-44
2.359091059e-44
2.359750976e-44
2.360590163e-44
2.361458733e-44
2.362290583e-44
2.363059765e-44
2.36375955e-44
2.364392333e-44
2.364964686e-44
2.365484834e-44
2.365961322e-44
2.366402267e-44
2.366814939e-44
2.367205533e-44
2.367579091e-44
2.367939503e-44
2.368289594e-44
2.368631251e-44
2.368965581e-44
2.369293081e-44
2.3696138e-44
2.369927494e-44
2.370233746e-44
2.370532068e-44
2.370821964e-44
2.371102966e-44
2.371374649e-44
2.371636614e-44
2.37188847e-44
2.372129798e-44
2.372360115e-44
2.372578853e-44
2.372785329e-44
2.372978742e-44
2.373158179e-44
2.373322629e-44
2.373471022e-44
2.373602268e-44
2.373715304e-44
2.373809156e-44
2.373882987e-44
2.373936153e-44
2.373968246e-44
2.373979136e-44
2.373968995e-44
2.373938315e-44
2.373887914e-44
2.373818929e-44
2.373732803e-44
2.373631257e-44
2.373516258e-44
2.373389983e-44
2.373254778e-44
2.373113109e-44
2.372967521e-44
2.372820591e-44
2.372674884e-44
2.372532909e-44
2.372397083e-44
2.372269694e-44
2.372152869e-44
2.372048545e-44
2.371958446e-44
2.371884064e-44
2.371826647e-44
2.371787183e-44
2.371766406e-44
2.371764786e-44
2.371782539e-44
2.371819637e-44
2.371875817e-44
2.371950602e-44
2.372043319e-44
2.372153119e-44
2.372279002e-44
2.372419842e-44
2.372574411e-44
2.372741403e-44
2.372919457e-44
2.373107181e-44
2.373303169e-44
2.373506021e-44
2.373714363e-44
2.373926852e-44
2.374142195e-44
2.374359158e-44
2.374576568e-44
2.374793327e-44
2.37500841e-44
2.375220872e-44
2.375429846e-44
2.37563455e-44
2.375834284e-44
2.376028432e-44
2.376216459e-44
2.376397914e-44
2.376572427e-44
2.376739709e-44
2.376899548e-44
2.377051809e-44
2.377196428e-44
2.377333406e-44
2.377462769e-44
2.377584393e-44
2.377696854e-44
2.377789725e-44
)
;

boundaryField
{
    inlet
    {
        type            fixedValue;
        value           uniform 0;
    }
    outlet
    {
        type            zeroGradient;
    }
    wall
    {
        type            empty;
    }
}


// ************************************************************************* //
