/*--------------------------------*- C++ -*----------------------------------*\
  =========                 |
  \\      /  F ield         | OpenFOAM: The Open Source CFD Toolbox
   \\    /   O peration     | Website:  https://openfoam.org
    \\  /    A nd           | Version:  7
     \\/     M anipulation  |
\*---------------------------------------------------------------------------*/
FoamFile
{
    version     2.0;
    format      ascii;
    class       volScalarField;
    location    "0.000558243009";
    object      NC3H7CHO;
}
// * * * * * * * * * * * * * * * * * * * * * * * * * * * * * * * * * * * * * //

dimensions      [0 0 0 0 0 0 0];

internalField   nonuniform List<scalar> 
1500
(
5.149204977e-17
2.006631383e-16
4.130166539e-16
6.172451822e-16
7.672900119e-16
8.573785118e-16
9.033396002e-16
9.237524389e-16
9.317803129e-16
9.346135955e-16
9.355210106e-16
9.357872329e-16
9.35859358e-16
9.358775258e-16
9.358818058e-16
9.358827535e-16
9.358829517e-16
9.35882991e-16
9.358829984e-16
9.358829997e-16
9.358829999e-16
9.35883e-16
9.35883e-16
9.35883e-16
9.35883e-16
9.35883e-16
9.35883e-16
9.35883e-16
9.35883e-16
9.35883e-16
9.35883e-16
9.35883e-16
9.35883e-16
9.35883e-16
9.35883e-16
9.35883e-16
9.35883e-16
9.35883e-16
9.35883e-16
9.35883e-16
9.35883e-16
9.35883e-16
9.35883e-16
9.35883e-16
9.35883e-16
9.35883e-16
9.35883e-16
9.35883e-16
9.35883e-16
9.35883e-16
9.35883e-16
9.35883e-16
9.35883e-16
9.35883e-16
9.35883e-16
9.35883e-16
9.35883e-16
9.35883e-16
9.35883e-16
9.35883e-16
9.35883e-16
9.35883e-16
9.35883e-16
9.35883e-16
9.35883e-16
9.35883e-16
9.35883e-16
9.35883e-16
9.35883e-16
9.35883e-16
9.35883e-16
9.35883e-16
9.35883e-16
9.35883e-16
9.35883e-16
9.35883e-16
9.35883e-16
9.35883e-16
9.35883e-16
9.35883e-16
9.35883e-16
9.35883e-16
9.35883e-16
9.35883e-16
9.35883e-16
9.35883e-16
9.35883e-16
9.35883e-16
9.35883e-16
9.35883e-16
9.35883e-16
9.35883e-16
9.35883e-16
9.35883e-16
9.35883e-16
9.35883e-16
9.35883e-16
9.35883e-16
9.35883e-16
9.35883e-16
9.35883e-16
9.35883e-16
9.35883e-16
9.35883e-16
9.35883e-16
9.35883e-16
9.35883e-16
9.35883e-16
9.35883e-16
9.35883e-16
9.35883e-16
9.35883e-16
9.35883e-16
9.35883e-16
9.35883e-16
9.35883e-16
9.35883e-16
9.35883e-16
9.35883e-16
9.35883e-16
9.35883e-16
9.35883e-16
9.35883e-16
9.35883e-16
9.35883e-16
9.35883e-16
9.35883e-16
9.35883e-16
9.35883e-16
9.35883e-16
9.35883e-16
9.35883e-16
9.35883e-16
9.35883e-16
9.35883e-16
9.35883e-16
9.35883e-16
9.35883e-16
9.35883e-16
9.35883e-16
9.35883e-16
9.35883e-16
9.35883e-16
9.35883e-16
9.35883e-16
9.35883e-16
9.35883e-16
9.35883e-16
9.35883e-16
9.35883e-16
9.35883e-16
9.35883e-16
9.35883e-16
9.35883e-16
9.35883e-16
9.35883e-16
9.35883e-16
9.35883e-16
9.35883e-16
9.35883e-16
9.35883e-16
9.35883e-16
9.35883e-16
9.35883e-16
9.35883e-16
9.35883e-16
9.35883e-16
9.35883e-16
9.35883e-16
9.35883e-16
9.35883e-16
9.35883e-16
9.35883e-16
9.35883e-16
9.35883e-16
9.35883e-16
9.35883e-16
9.35883e-16
9.35883e-16
9.35883e-16
9.35883e-16
9.35883e-16
9.35883e-16
9.35883e-16
9.35883e-16
9.35883e-16
9.35883e-16
9.35883e-16
9.35883e-16
9.35883e-16
9.35883e-16
9.35883e-16
9.35883e-16
9.35883e-16
9.35883e-16
9.35883e-16
9.35883e-16
9.35883e-16
9.35883e-16
9.35883e-16
9.35883e-16
9.35883e-16
9.35883e-16
9.35883e-16
9.35883e-16
9.35883e-16
9.35883e-16
9.35883e-16
9.35883e-16
9.35883e-16
9.35883e-16
9.35883e-16
9.35883e-16
9.35883e-16
9.35883e-16
9.35883e-16
9.35883e-16
9.35883e-16
9.35883e-16
9.35883e-16
9.35883e-16
9.35883e-16
9.35883e-16
9.35883e-16
9.35883e-16
9.35883e-16
9.35883e-16
9.35883e-16
9.35883e-16
9.35883e-16
9.35883e-16
9.35883e-16
9.35883e-16
9.35883e-16
9.35883e-16
9.35883e-16
9.358830001e-16
9.358830003e-16
9.358830009e-16
9.358830034e-16
9.358830138e-16
9.358830568e-16
9.358832223e-16
9.358838141e-16
9.358857623e-16
9.358916111e-16
9.359074324e-16
9.359452059e-16
9.360214747e-16
9.361369336e-16
9.361683251e-16
9.36179381e-16
9.36190884e-16
9.362028569e-16
9.362153164e-16
9.362282798e-16
9.362417668e-16
9.362557991e-16
9.362703999e-16
9.362855938e-16
9.363014063e-16
9.363178637e-16
9.36334994e-16
9.363528261e-16
9.363713903e-16
9.363907183e-16
9.364108433e-16
9.364318001e-16
9.364536253e-16
9.364763568e-16
9.365000349e-16
9.365247014e-16
9.365504004e-16
9.365771779e-16
9.366050824e-16
9.366341647e-16
9.366644781e-16
9.366960787e-16
9.367290252e-16
9.367633796e-16
9.367992067e-16
9.368365749e-16
9.368755562e-16
9.36916226e-16
9.369586642e-16
9.370029545e-16
9.370491852e-16
9.370974495e-16
9.371478454e-16
9.372004765e-16
9.37255452e-16
9.373128872e-16
9.373729036e-16
9.3743563e-16
9.37501202e-16
9.375697634e-16
9.37641466e-16
9.377164704e-16
9.377949467e-16
9.378770748e-16
9.379630455e-16
9.380530608e-16
9.381473347e-16
9.382460942e-16
9.383495802e-16
9.384580479e-16
9.385717686e-16
9.386910299e-16
9.388161375e-16
9.38947416e-16
9.390852103e-16
9.392298868e-16
9.393818352e-16
9.395414697e-16
9.397092308e-16
9.398855871e-16
9.40071037e-16
9.402661107e-16
9.404713726e-16
9.406874232e-16
9.409149016e-16
9.411544879e-16
9.414069064e-16
9.416729277e-16
9.419533724e-16
9.422491136e-16
9.425610811e-16
9.428902642e-16
9.432377161e-16
9.436045576e-16
9.439919811e-16
9.444012556e-16
9.44833731e-16
9.452908431e-16
9.45774119e-16
9.462851823e-16
9.468257589e-16
9.473976833e-16
9.480029046e-16
9.486434932e-16
9.49321648e-16
9.500397033e-16
9.508001367e-16
9.516055766e-16
9.524588111e-16
9.533627961e-16
9.543206644e-16
9.553357349e-16
9.564115227e-16
9.575517488e-16
9.587603503e-16
9.600414917e-16
9.613995756e-16
9.628392545e-16
9.643654425e-16
9.659833275e-16
9.676983837e-16
9.695163848e-16
9.71443417e-16
9.734858924e-16
9.756505632e-16
9.779445359e-16
9.803752854e-16
9.829506698e-16
9.856789455e-16
9.885687823e-16
9.916292785e-16
9.948699768e-16
9.983008794e-16
1.001932464e-15
1.0057757e-15
1.009842064e-15
1.014143554e-15
1.018692709e-15
1.023502619e-15
1.028586947e-15
1.033959939e-15
1.039636441e-15
1.045631914e-15
1.051962448e-15
1.058644774e-15
1.065696283e-15
1.07313503e-15
1.080979757e-15
1.089249894e-15
1.097965576e-15
1.107147654e-15
1.116817698e-15
1.126998012e-15
1.137711635e-15
1.148982353e-15
1.1608347e-15
1.173293961e-15
1.186386177e-15
1.200138145e-15
1.214577417e-15
1.229732298e-15
1.245631843e-15
1.262305852e-15
1.279784861e-15
1.298100137e-15
1.317283665e-15
1.337368136e-15
1.358386934e-15
1.380374118e-15
1.403364408e-15
1.427393159e-15
1.452496345e-15
1.478710531e-15
1.506072851e-15
1.534620974e-15
1.564393081e-15
1.595427828e-15
1.627764313e-15
1.661442043e-15
1.696500892e-15
1.732981065e-15
1.770923053e-15
1.810367593e-15
1.85135562e-15
1.893928225e-15
1.938126601e-15
1.983991999e-15
2.031565672e-15
2.08088883e-15
2.132002578e-15
2.184947872e-15
2.239765454e-15
2.296495807e-15
2.355179091e-15
2.415855088e-15
2.478563152e-15
2.543342145e-15
2.610230384e-15
2.679265585e-15
2.750484811e-15
2.823924413e-15
2.899619977e-15
2.977606278e-15
3.057917221e-15
3.1405858e-15
3.225644045e-15
3.313122983e-15
3.40305259e-15
3.495461755e-15
3.590378242e-15
3.687828658e-15
3.787838419e-15
3.890431727e-15
3.995631545e-15
4.10345958e-15
4.213936266e-15
4.327080759e-15
4.442910924e-15
4.561443343e-15
4.682693318e-15
4.806674879e-15
4.933400805e-15
5.062882643e-15
5.19513074e-15
5.33015428e-15
5.467961319e-15
5.608558843e-15
5.751952819e-15
5.898148263e-15
6.047149306e-15
6.198959279e-15
6.353580798e-15
6.511015859e-15
6.671265945e-15
6.834332138e-15
7.00021524e-15
7.168915906e-15
7.340434783e-15
7.514772664e-15
7.691930643e-15
7.87191029e-15
8.05471383e-15
8.240344334e-15
8.428805918e-15
8.620103964e-15
8.814245334e-15
9.011238613e-15
9.211094352e-15
9.413825329e-15
9.619446819e-15
9.827976876e-15
1.003943663e-14
1.02538506e-14
1.047124701e-14
1.069165811e-14
1.091512056e-14
1.114167577e-14
1.137137026e-14
1.160425607e-14
1.184039118e-14
1.207983988e-14
1.232267326e-14
1.25689696e-14
1.28188149e-14
1.30723033e-14
1.332953761e-14
1.359062979e-14
1.385570152e-14
1.412488472e-14
1.43983221e-14
1.467616774e-14
1.495858771e-14
1.524576064e-14
1.553787841e-14
1.583514673e-14
1.613778587e-14
1.644603134e-14
1.676013454e-14
1.708036367e-14
1.740700433e-14
1.774036021e-14
1.808075402e-14
1.842852825e-14
1.878404604e-14
1.914769206e-14
1.951987337e-14
1.990102031e-14
2.029158747e-14
2.069205456e-14
2.110292741e-14
2.152473895e-14
2.19580502e-14
2.240345126e-14
2.286156249e-14
2.333303558e-14
2.381855475e-14
2.431883787e-14
2.483463784e-14
2.53667438e-14
2.591598231e-14
2.648321873e-14
2.706935867e-14
2.767534937e-14
2.830218131e-14
2.895088966e-14
2.9622556e-14
3.031830988e-14
3.10393307e-14
3.178684943e-14
3.256215057e-14
3.336657413e-14
3.420151771e-14
3.506843869e-14
3.59688565e-14
3.690435501e-14
3.787658509e-14
3.888726722e-14
3.99381943e-14
4.103123463e-14
4.216833496e-14
4.335152388e-14
4.458291524e-14
4.586471194e-14
4.719920986e-14
4.858880214e-14
5.003598374e-14
5.15433563e-14
5.311363352e-14
5.474964689e-14
5.6454352e-14
5.823083547e-14
6.008232267e-14
6.201218625e-14
6.402395576e-14
6.612132862e-14
6.830818259e-14
7.058859019e-14
7.296683556e-14
7.544743419e-14
7.803515638e-14
8.073505529e-14
8.355250072e-14
8.649322017e-14
8.956334893e-14
9.276949173e-14
9.611879878e-14
9.961906021e-14
1.032788237e-13
1.071075414e-13
1.111157542e-13
1.15315323e-13
1.197197202e-13
1.243443966e-13
1.292072456e-13
1.343291892e-13
1.397349195e-13
1.454538383e-13
1.515212474e-13
1.579798567e-13
1.648816985e-13
1.722905548e-13
1.802850387e-13
1.889625047e-13
1.98444014e-13
2.088806378e-13
2.204614624e-13
2.334237543e-13
2.4806587e-13
2.647636511e-13
2.83991248e-13
3.063475654e-13
3.325898508e-13
3.636763525e-13
4.008204958e-13
4.455596856e-13
4.998426818e-13
5.661405572e-13
6.475875973e-13
7.481602136e-13
8.729041152e-13
1.028222742e-12
1.222243456e-12
1.46528243e-12
1.770434791e-12
2.154323716e-12
2.638051224e-12
3.24840486e-12
4.019389024e-12
4.99416807e-12
6.227531679e-12
7.789022475e-12
9.766903326e-12
1.227318902e-11
1.545002695e-11
1.947778709e-11
2.458531734e-11
3.106294101e-11
3.927892622e-11
4.970034912e-11
6.291951606e-11
7.968741545e-11
1.009560551e-10
1.279320249e-10
1.62144232e-10
2.055295183e-10
2.60540824e-10
3.302837539e-10
4.186888907e-10
5.307290538e-10
6.726930008e-10
8.525299209e-10
1.080282585e-09
1.368631345e-09
1.733576484e-09
2.195292868e-09
2.779198721e-09
3.517289775e-09
4.449801398e-09
5.627274727e-09
7.11311869e-09
8.986778175e-09
1.134763978e-08
1.431983044e-08
1.805809079e-08
2.27549336e-08
2.864932794e-08
3.603717967e-08
4.528390754e-08
5.683943848e-08
7.12559625e-08
8.920879351e-08
1.115206715e-07
1.391898103e-07
1.734219375e-07
2.156664853e-07
2.67656969e-07
3.314554369e-07
4.095006883e-07
5.04659749e-07
6.202818771e-07
7.602541579e-07
9.290575646e-07
1.131822226e-06
1.374380579e-06
1.663317095e-06
2.006013391e-06
2.410687721e-06
2.886428098e-06
3.44321863e-06
4.09195898e-06
4.844477209e-06
5.713536677e-06
6.712838031e-06
7.857018166e-06
9.161647513e-06
1.064322952e-05
1.231920522e-05
1.420796817e-05
1.632889655e-05
1.870241218e-05
2.135008384e-05
2.429367359e-05
2.756095883e-05
3.117076453e-05
3.517259536e-05
3.959025419e-05
4.44399682e-05
4.95743489e-05
5.495957138e-05
6.034432715e-05
6.525533356e-05
6.902787953e-05
7.108102286e-05
7.12914051e-05
7.002411558e-05
6.775720579e-05
6.484007841e-05
6.14825151e-05
5.77292115e-05
5.381676834e-05
4.972618088e-05
4.550868278e-05
4.114610936e-05
3.683357322e-05
3.256682461e-05
2.84131481e-05
2.439327396e-05
2.064927139e-05
1.719899406e-05
1.408982118e-05
1.135262501e-05
8.99954663e-06
7.024991204e-06
5.394464978e-06
4.096781962e-06
3.070332366e-06
2.282265562e-06
1.683387921e-06
1.23426527e-06
9.012077647e-07
6.565357792e-07
4.754955395e-07
3.426725376e-07
2.466478783e-07
1.774073124e-07
1.276030803e-07
9.182199964e-08
6.610469536e-08
4.76178942e-08
3.432042432e-08
2.473959582e-08
1.800297225e-08
1.313021044e-08
9.541959854e-09
6.950630396e-09
5.075016752e-09
3.713807707e-09
2.723271152e-09
2.000645409e-09
1.473065122e-09
1.085991471e-09
8.018958833e-10
5.930190398e-10
4.391927503e-10
3.25729818e-10
2.419122234e-10
1.799035597e-10
1.339640775e-10
9.988259312e-11
7.456438619e-11
5.573163217e-11
4.170521867e-11
3.124555023e-11
2.343619125e-11
1.759867771e-11
1.323004366e-11
9.956938152e-12
7.501870418e-12
5.658342009e-12
4.272499394e-12
3.229578083e-12
2.443873228e-12
1.851309509e-12
1.403929598e-12
1.06580074e-12
8.099709006e-13
6.162027498e-13
4.69284782e-13
3.577712036e-13
2.730407124e-13
2.085927265e-13
1.595206107e-13
1.221169805e-13
9.357766716e-14
7.177945651e-14
5.511304916e-14
4.235739512e-14
3.258505975e-14
2.50908861e-14
1.933816428e-14
1.491796992e-14
1.151841872e-14
8.901394896e-15
6.88491861e-15
5.329772133e-15
4.129345636e-15
3.201919566e-15
2.484792832e-15
1.929810766e-15
1.499955662e-15
1.166744777e-15
9.08242561e-16
7.075406014e-16
5.515940858e-16
4.303302928e-16
3.359648592e-16
2.624769034e-16
2.052057208e-16
1.605406118e-16
1.256821203e-16
9.845808121e-17
7.718177253e-17
6.054244177e-17
4.752074809e-17
3.732339562e-17
2.933256214e-17
2.306674317e-17
1.815041137e-17
1.429048867e-17
1.12580876e-17
8.874331409e-18
6.999333628e-18
5.523627129e-18
4.361493364e-18
3.445766941e-18
2.723786427e-18
2.154236331e-18
1.704682468e-18
1.34964717e-18
1.069105105e-18
8.473070268e-19
6.718593561e-19
5.330035003e-19
4.230512013e-19
3.359418576e-19
2.668952563e-19
2.121389844e-19
1.686943302e-19
1.342080239e-19
1.068199253e-19
8.505891737e-20
6.776094591e-20
5.400445792e-20
4.305951611e-20
3.434767056e-20
2.741029611e-20
2.1883596e-20
1.747885769e-20
1.396684914e-20
1.116548086e-20
8.930045232e-21
7.145490806e-21
5.720304338e-21
4.581663549e-21
3.67159485e-21
2.943926206e-21
2.361869467e-21
1.896101229e-21
1.52323874e-21
1.224628979e-21
9.853861427e-22
7.936262315e-22
6.398581188e-22
5.164989067e-22
4.174880352e-22
3.379798976e-22
2.740988909e-22
2.227441403e-22
1.81433765e-22
1.481806275e-22
1.213931665e-22
9.979621794e-23
8.236777208e-23
6.828844188e-23
5.690107212e-23
4.767844344e-23
4.019743971e-23
3.411837826e-23
2.916846557e-23
2.51285505e-23
2.182251447e-23
1.910877087e-23
1.687345218e-23
1.502494818e-23
1.348952568e-23
1.220781486e-23
1.113198965e-23
1.022350453e-23
9.451277452e-24
8.790230312e-24
8.220116537e-24
7.724578851e-24
7.290391893e-24
6.906853227e-24
6.565293542e-24
6.258682584e-24
5.981312038e-24
5.728540246e-24
5.49658665e-24
5.282366221e-24
5.083356056e-24
4.897487864e-24
4.723061276e-24
4.558673937e-24
4.403165102e-24
4.255570107e-24
4.115083619e-24
3.981029937e-24
3.852838997e-24
3.730026972e-24
3.612180569e-24
3.498944326e-24
3.39001031e-24
3.285109778e-24
3.184006396e-24
3.086490742e-24
2.99237583e-24
2.901493466e-24
2.81369128e-24
2.728830296e-24
2.646782947e-24
2.567431449e-24
2.490666458e-24
2.41638597e-24
2.344494405e-24
2.274901851e-24
2.20752343e-24
2.142278774e-24
2.079091577e-24
2.017889221e-24
1.958602456e-24
1.901165127e-24
1.845513938e-24
1.791588249e-24
1.7393299e-24
1.688683048e-24
1.639594039e-24
1.592011272e-24
1.545885098e-24
1.501167717e-24
1.457813083e-24
1.415776826e-24
1.375016171e-24
1.335489871e-24
1.297158136e-24
1.259982576e-24
1.223926139e-24
1.188953061e-24
1.155028813e-24
1.122120049e-24
1.090194566e-24
1.059221258e-24
1.029170072e-24
1.000011972e-24
9.717188998e-25
9.442637393e-25
9.176202813e-25
8.91763191e-25
8.666679762e-25
8.423109574e-25
8.186692382e-25
7.957206777e-25
7.734438633e-25
7.518180854e-25
7.308233125e-25
7.104401671e-25
6.906499034e-25
6.714343847e-25
6.527760625e-25
6.346579562e-25
6.170636334e-25
5.999771907e-25
5.833832363e-25
5.672668715e-25
5.516136748e-25
5.364096848e-25
5.216413852e-25
5.072956892e-25
4.933599256e-25
4.798218241e-25
4.666695022e-25
4.538914522e-25
4.414765282e-25
4.294139348e-25
4.176932146e-25
4.063042376e-25
3.952371898e-25
3.844825632e-25
3.740311454e-25
3.638740098e-25
3.540025067e-25
3.444082535e-25
3.350831265e-25
3.260192521e-25
3.172089989e-25
3.086449699e-25
3.003199942e-25
2.922271208e-25
2.843596104e-25
2.767109292e-25
2.692747421e-25
2.620449065e-25
2.550154659e-25
2.481806438e-25
2.415348384e-25
2.350726168e-25
2.287887095e-25
2.226780056e-25
2.167355472e-25
2.10956525e-25
2.053362737e-25
1.998702669e-25
1.945541135e-25
1.893835526e-25
1.843544503e-25
1.79462795e-25
1.747046941e-25
1.700763699e-25
1.655741564e-25
1.611944955e-25
1.569339338e-25
1.527891195e-25
1.48756799e-25
1.448338142e-25
1.410170991e-25
1.373036774e-25
1.336906597e-25
1.301752406e-25
1.267546963e-25
1.23426382e-25
1.201877299e-25
1.170362462e-25
1.139695094e-25
1.109851679e-25
1.080809378e-25
1.05254601e-25
1.025040033e-25
9.982705229e-26
9.722171545e-26
9.46860186e-26
9.221804399e-26
8.981592863e-26
8.747786268e-26
8.520208786e-26
8.298689593e-26
8.083062716e-26
7.873166894e-26
7.668845438e-26
7.469946092e-26
7.276320907e-26
7.08782611e-26
6.904321983e-26
6.725672747e-26
6.551746439e-26
6.382414807e-26
6.217553199e-26
6.057040458e-26
5.900758817e-26
5.748593806e-26
5.600434152e-26
5.456171689e-26
5.315701264e-26
5.178920652e-26
5.045730474e-26
4.916034108e-26
4.789737617e-26
4.666749667e-26
4.546981452e-26
4.430346624e-26
4.316761221e-26
4.206143598e-26
4.098414363e-26
3.993496308e-26
3.891314353e-26
3.79179548e-26
3.694868676e-26
3.600464879e-26
3.508516915e-26
3.418959454e-26
3.331728951e-26
3.246763596e-26
3.164003269e-26
3.083389489e-26
3.004865367e-26
2.928375565e-26
2.853866248e-26
2.781285045e-26
2.710581007e-26
2.641704564e-26
2.574607494e-26
2.509242877e-26
2.445565062e-26
2.383529633e-26
2.323093374e-26
2.264214233e-26
2.206851293e-26
2.150964738e-26
2.096515822e-26
2.043466844e-26
1.991781114e-26
1.941422927e-26
1.892357534e-26
1.844551119e-26
1.797970771e-26
1.75258446e-26
1.70836101e-26
1.665270081e-26
1.62328214e-26
1.582368443e-26
1.542501012e-26
1.503652612e-26
1.465796736e-26
1.42890758e-26
1.392960024e-26
1.357929617e-26
1.323792556e-26
1.290525669e-26
1.258106399e-26
1.226512783e-26
1.195723442e-26
1.16571756e-26
1.136474873e-26
1.10797565e-26
1.080200681e-26
1.053131263e-26
1.026749184e-26
1.001036714e-26
9.759765863e-27
9.51551991e-27
9.277465582e-27
9.045443482e-27
8.819298392e-27
8.598879169e-27
8.384038626e-27
8.174633433e-27
7.970524009e-27
7.771574426e-27
7.577652307e-27
7.388628732e-27
7.204378151e-27
7.024778284e-27
6.849710043e-27
6.679057442e-27
6.512707517e-27
6.350550241e-27
6.192478453e-27
6.038387776e-27
5.888176546e-27
5.741745736e-27
5.598998894e-27
5.459842066e-27
5.324183735e-27
5.191934755e-27
5.063008289e-27
4.937319746e-27
4.814786726e-27
4.695328956e-27
4.578868239e-27
4.465328396e-27
4.354635217e-27
4.246716403e-27
4.141501521e-27
4.038921953e-27
3.938910848e-27
3.841403075e-27
3.74633518e-27
3.653645339e-27
3.563273319e-27
3.475160432e-27
3.389249498e-27
3.305484803e-27
3.223812061e-27
3.14417838e-27
3.06653222e-27
2.990823362e-27
2.917002869e-27
2.845023057e-27
2.774837462e-27
2.706400802e-27
2.639668953e-27
2.574598917e-27
2.511148788e-27
2.449277729e-27
2.388945941e-27
2.330114637e-27
2.272746014e-27
2.216803227e-27
2.162250366e-27
2.109052429e-27
2.057175298e-27
2.006585718e-27
1.957251269e-27
1.909140349e-27
1.86222215e-27
1.816466635e-27
1.771844519e-27
1.728327247e-27
1.685886978e-27
1.644496557e-27
1.604129505e-27
1.564759994e-27
1.526362832e-27
1.488913441e-27
1.452387841e-27
1.416762636e-27
1.382014987e-27
1.348122606e-27
1.315063729e-27
1.282817107e-27
1.251361982e-27
1.220678077e-27
1.190745573e-27
1.161545097e-27
1.133057704e-27
1.105264856e-27
1.078148413e-27
1.051690607e-27
1.025874032e-27
1.000681622e-27
9.760966349e-28
9.521026332e-28
9.286834661e-28
9.058232503e-28
8.835063507e-28
8.617173603e-28
8.404410797e-28
8.196624973e-28
7.993667673e-28
7.795391889e-28
7.60165185e-28
7.412302799e-28
7.227200779e-28
7.046202409e-28
6.869164645e-28
6.695944529e-28
6.526398889e-28
6.360383975e-28
6.197754983e-28
6.038365377e-28
5.882066046e-28
5.728704102e-28
5.578121442e-28
5.430153256e-28
5.284627207e-28
4.118688305e-28
2.931543539e-28
2.085410805e-28
1.482166306e-28
1.052296193e-28
7.462563469e-29
5.286044862e-29
3.739841919e-29
2.64267508e-29
1.865057586e-29
1.314588343e-29
9.253982853e-30
6.505828389e-30
4.567793902e-30
3.202851985e-30
2.24280611e-30
1.56845023e-30
1.095406415e-30
7.640266503e-31
5.32200608e-31
3.702394522e-31
2.572403869e-31
1.785070128e-31
1.237210161e-31
8.56481392e-32
5.922357861e-32
4.090640509e-32
2.822456928e-32
1.945465671e-32
1.339684347e-32
9.216961484e-33
6.33584312e-33
4.35189509e-33
2.987010315e-33
2.048834954e-33
1.404485871e-33
9.62268856e-34
6.589808019e-34
4.511021377e-34
3.08695974e-34
2.111876634e-34
1.444489401e-34
9.878569536e-35
6.755103157e-35
4.619032185e-35
3.158434323e-35
2.159803072e-35
1.477047675e-35
1.010247069e-35
6.910746855e-36
4.728180534e-36
3.235474287e-36
2.214495851e-36
1.515974818e-36
1.037978101e-36
7.1083293e-37
4.868435358e-37
3.334741095e-37
2.284562368e-37
1.56513421e-37
1.072128324e-37
7.344983757e-38
5.030622839e-38
3.445562856e-38
2.358721391e-38
1.614456839e-38
1.104447868e-38
7.55058893e-39
5.157379222e-39
3.520345251e-39
2.405563307e-39
1.635049883e-39
1.108532843e-39
7.555589957e-40
5.127310542e-40
3.425433295e-40
2.405877159e-40
1.544923394e-40
1.100814347e-40
6.689762547e-41
3.938218251e-41
3.119741753e-41
2.390154248e-41
1.320770383e-41
1.3724546e-41
2.969497827e-42
3.716795741e-42
2.782272945e-42
9.099274854e-43
2.290505196e-42
5.405286019e-45
1.133556068e-42
1.301636394e-42
3.747675735e-43
7.295895378e-43
2.346190979e-43
1.39845053e-43
3.572469656e-43
8.869681481e-45
1.751527945e-43
2.244023656e-43
7.3158585e-45
5.060994303e-44
0
1.20227254e-43
2.006652845e-44
2.36157035e-43
6.939340883e-44
7.81011742e-44
6.519808909e-44
2.468318848e-44
1.948033624e-44
7.454109009e-44
2.296064597e-44
1.643211845e-43
1.99894303e-43
6.046761729e-44
6.445487029e-44
9.062493995e-44
1.3039257e-43
9.202393948e-45
7.501928311e-46
2.363850153e-45
8.457814897e-44
5.122171196e-44
1.456596067e-43
7.38081423e-44
1.172324503e-44
6.302494047e-45
2.706354132e-44
1.412178246e-44
3.725698597e-46
1.334130489e-43
7.088262896e-44
2.389199079e-43
7.526518257e-44
1.500891488e-43
4.953182452e-44
2.304332432e-44
1.749773831e-43
1.312266619e-43
3.741908789e-45
2.662850919e-43
6.317957703e-44
0
0
3.175890563e-44
2.218202629e-45
2.968838319e-43
2.460441903e-43
9.436884453e-44
2.476690501e-45
4.852284379e-44
7.638380216e-44
1.410652262e-43
1.796261088e-45
8.974880642e-44
2.166012645e-44
2.155765009e-43
2.535063354e-43
2.972138334e-43
2.480127471e-45
0
1.710058075e-43
7.608203872e-44
9.187879331e-44
6.373442391e-45
2.217940691e-43
9.49519409e-44
2.230221857e-44
2.016252968e-43
3.204401359e-44
0
1.326408778e-43
1.983947025e-45
3.833394384e-44
1.058623561e-45
1.016115144e-44
2.156603991e-45
2.420888446e-44
1.849591897e-44
3.078571083e-43
0
2.251249433e-43
4.254375389e-44
2.034597013e-43
3.891029244e-43
1.369439753e-43
1.297607827e-43
2.231846456e-43
3.846465743e-43
0
3.155138449e-43
2.705124264e-43
1.430255798e-43
1.16245171e-43
5.168478432e-44
2.298917251e-43
1.548786092e-43
9.589835696e-44
1.318966163e-43
9.373872202e-46
0
9.190374864e-44
1.118465798e-43
8.575377963e-44
1.748974487e-43
1.543782355e-45
3.173529986e-44
0
0
2.138156898e-44
4.769371428e-46
5.731223274e-46
1.038832599e-44
2.257591931e-46
1.177279829e-43
9.471121134e-45
6.304306807e-44
1.037785385e-43
6.088378822e-44
7.421661659e-44
2.145426746e-44
3.561415606e-44
2.786308631e-46
3.849879476e-44
7.746483159e-44
1.223664225e-43
1.789228025e-45
5.417064925e-44
1.846958321e-43
2.974949902e-44
1.780213485e-44
7.194139444e-44
6.431032186e-44
3.783342138e-44
1.49938158e-44
8.753947936e-44
2.267849575e-43
2.031642081e-45
3.121032013e-46
8.486525928e-44
1.886341421e-44
6.956859757e-46
2.15853535e-44
8.033757572e-44
0
4.339532628e-44
4.390941998e-44
2.538626853e-43
)
;

boundaryField
{
    inlet
    {
        type            fixedValue;
        value           uniform 0;
    }
    outlet
    {
        type            zeroGradient;
    }
    wall
    {
        type            empty;
    }
}


// ************************************************************************* //
