/*--------------------------------*- C++ -*----------------------------------*\
  =========                 |
  \\      /  F ield         | OpenFOAM: The Open Source CFD Toolbox
   \\    /   O peration     | Website:  https://openfoam.org
    \\  /    A nd           | Version:  7
     \\/     M anipulation  |
\*---------------------------------------------------------------------------*/
FoamFile
{
    version     2.0;
    format      ascii;
    class       volScalarField;
    location    "0.000558243009";
    object      NC3H7;
}
// * * * * * * * * * * * * * * * * * * * * * * * * * * * * * * * * * * * * * //

dimensions      [0 0 0 0 0 0 0];

internalField   nonuniform List<scalar> 
1500
(
7.299379606e-29
8.294822001e-29
8.951749428e-29
9.556437696e-29
9.991451315e-29
1.0267603e-28
1.042379349e-28
1.050126843e-28
1.053502442e-28
1.054865897e-28
1.055475431e-28
1.055866065e-28
1.056212499e-28
1.056546077e-28
1.056855511e-28
1.057125818e-28
1.057349866e-28
1.057528748e-28
1.057668459e-28
1.057776345e-28
1.057858737e-28
1.057920026e-28
1.057962869e-28
1.057988977e-28
1.057999966e-28
1.057997944e-28
1.057985717e-28
1.057966634e-28
1.057944238e-28
1.057921861e-28
1.057902297e-28
1.057887607e-28
1.057879082e-28
1.057877315e-28
1.057882339e-28
1.05789378e-28
1.057910993e-28
1.057933166e-28
1.05795939e-28
1.057988706e-28
1.058020136e-28
1.058052712e-28
1.058085516e-28
1.058117722e-28
1.058148633e-28
1.058177717e-28
1.058204627e-28
1.058229193e-28
1.058251415e-28
1.058271421e-28
1.058289433e-28
1.058305722e-28
1.058320564e-28
1.058334209e-28
1.058346853e-28
1.058358624e-28
1.058369578e-28
1.058379692e-28
1.058388883e-28
1.058397009e-28
1.058403889e-28
1.058409316e-28
1.058413069e-28
1.058414931e-28
1.058414702e-28
1.058412207e-28
1.058407318e-28
1.058399955e-28
1.058390103e-28
1.058377813e-28
1.058363208e-28
1.058346486e-28
1.058327916e-28
1.058307831e-28
1.058286622e-28
1.058264725e-28
1.058242611e-28
1.058220769e-28
1.058199693e-28
1.058179868e-28
1.058161755e-28
1.058145782e-28
1.058132331e-28
1.05812173e-28
1.058114245e-28
1.058110075e-28
1.058109355e-28
1.058112144e-28
1.058118438e-28
1.05812816e-28
1.058141174e-28
1.058157278e-28
1.058176216e-28
1.058197684e-28
1.05822133e-28
1.058246772e-28
1.058273597e-28
1.05830138e-28
1.058329686e-28
1.058358089e-28
1.058386177e-28
1.058413564e-28
1.058439903e-28
1.058464894e-28
1.058488288e-28
1.058509898e-28
1.058529599e-28
1.058547329e-28
1.058563088e-28
1.058576929e-28
1.058588957e-28
1.058599317e-28
1.05860818e-28
1.058615737e-28
1.058622187e-28
1.058627723e-28
1.058632524e-28
1.05863675e-28
1.058640533e-28
1.058643977e-28
1.058647153e-28
1.058650104e-28
1.058652849e-28
1.058655384e-28
1.058657688e-28
1.058659732e-28
1.058661481e-28
1.058662902e-28
1.058663964e-28
1.058664643e-28
1.058664921e-28
1.058664789e-28
1.058664242e-28
1.058663278e-28
1.058661892e-28
1.05866008e-28
1.058657827e-28
1.058655111e-28
1.058651899e-28
1.058648146e-28
1.058643796e-28
1.058638786e-28
1.058633045e-28
1.0586265e-28
1.058619082e-28
1.058610725e-28
1.058601379e-28
1.058591008e-28
1.058579595e-28
1.058567146e-28
1.058553694e-28
1.058539293e-28
1.058524026e-28
1.058507998e-28
1.058491333e-28
1.058474175e-28
1.058456681e-28
1.058439019e-28
1.05842136e-28
1.058403881e-28
1.058386755e-28
1.058370153e-28
1.05835424e-28
1.058339172e-28
1.058325101e-28
1.05831217e-28
1.058300516e-28
1.05829027e-28
1.058281557e-28
1.058274498e-28
1.058269209e-28
1.0582658e-28
1.058264372e-28
1.058265017e-28
1.058267813e-28
1.05827282e-28
1.058280075e-28
1.058289587e-28
1.058301333e-28
1.058315251e-28
1.058331238e-28
1.058349144e-28
1.058368771e-28
1.058389869e-28
1.058412139e-28
1.058435232e-28
1.05845875e-28
1.058482259e-28
1.05850529e-28
1.058527352e-28
1.058547946e-28
1.058566577e-28
1.058582777e-28
1.058596117e-28
1.058606225e-28
1.058612809e-28
1.058615662e-28
1.058614676e-28
1.058609846e-28
1.058601263e-28
1.058589111e-28
1.058573648e-28
1.058555188e-28
1.05853408e-28
1.058510689e-28
1.058485374e-28
1.058458477e-28
1.058430319e-28
1.058401203e-28
1.058371427e-28
1.058341299e-28
1.058311163e-28
1.058281408e-28
1.058252488e-28
1.058224909e-28
1.058199209e-28
1.058175912e-28
1.058155461e-28
1.058138123e-28
1.058123896e-28
1.058112399e-28
1.058102783e-28
1.058093662e-28
1.058083097e-28
1.058068627e-28
1.058047377e-28
1.058016234e-28
1.057972098e-28
1.057912184e-28
1.057834369e-28
1.057737537e-28
1.057621892e-28
1.057489203e-28
1.057342928e-28
1.057188178e-28
1.057031513e-28
1.056880525e-28
1.05674324e-28
1.056627344e-28
1.056539298e-28
1.05648341e-28
1.056460979e-28
1.056469723e-28
1.05650387e-28
1.056555726e-28
1.05662012e-28
1.056703364e-28
1.056835028e-28
1.057067634e-28
1.057417158e-28
1.057547579e-28
1.057586943e-28
1.057626621e-28
1.05766707e-28
1.057708605e-28
1.057751457e-28
1.057795814e-28
1.057841831e-28
1.057889647e-28
1.05793939e-28
1.057991183e-28
1.058045146e-28
1.058101399e-28
1.058160066e-28
1.058221273e-28
1.058285153e-28
1.058351842e-28
1.058421485e-28
1.058494232e-28
1.058570241e-28
1.058649678e-28
1.058732717e-28
1.058819542e-28
1.058910346e-28
1.059005331e-28
1.059104709e-28
1.059208706e-28
1.059317558e-28
1.059431512e-28
1.05955083e-28
1.059675788e-28
1.059806676e-28
1.059943798e-28
1.060087478e-28
1.060238055e-28
1.060395887e-28
1.060561351e-28
1.060734846e-28
1.060916792e-28
1.061107634e-28
1.06130784e-28
1.061517906e-28
1.061738355e-28
1.06196974e-28
1.062212646e-28
1.062467692e-28
1.062735534e-28
1.063016865e-28
1.063312417e-28
1.06362297e-28
1.063949347e-28
1.06429242e-28
1.064653116e-28
1.065032417e-28
1.065431364e-28
1.065851062e-28
1.066292685e-28
1.066757478e-28
1.067246765e-28
1.067761951e-28
1.068304529e-28
1.068876087e-28
1.069478312e-28
1.070112999e-28
1.070782056e-28
1.071487511e-28
1.072231525e-28
1.073016393e-28
1.073844561e-28
1.07471863e-28
1.075641367e-28
1.076615719e-28
1.077644822e-28
1.078732014e-28
1.079880848e-28
1.081095106e-28
1.082378813e-28
1.083736253e-28
1.085171987e-28
1.086690867e-28
1.088298055e-28
1.089999044e-28
1.091799678e-28
1.093706172e-28
1.095725136e-28
1.097863596e-28
1.100129023e-28
1.102529355e-28
1.105073027e-28
1.107768999e-28
1.110626785e-28
1.113656486e-28
1.116868823e-28
1.120275168e-28
1.123887583e-28
1.127718859e-28
1.13178255e-28
1.136093014e-28
1.14066546e-28
1.145515986e-28
1.150661626e-28
1.156120397e-28
1.161911348e-28
1.168054608e-28
1.174571438e-28
1.181484285e-28
1.188816835e-28
1.19659407e-28
1.204842327e-28
1.213589352e-28
1.222864367e-28
1.232698126e-28
1.243122979e-28
1.254172939e-28
1.265883742e-28
1.27829292e-28
1.291439858e-28
1.305365873e-28
1.32011427e-28
1.335730423e-28
1.352261834e-28
1.369758206e-28
1.388271515e-28
1.407856072e-28
1.428568598e-28
1.45046829e-28
1.473616884e-28
1.498078729e-28
1.523920844e-28
1.551212986e-28
1.58002771e-28
1.61044043e-28
1.642529475e-28
1.676376141e-28
1.712064751e-28
1.749682695e-28
1.789320481e-28
1.831071774e-28
1.875033436e-28
1.921305558e-28
1.969991488e-28
2.021197859e-28
2.075034602e-28
2.131614966e-28
2.191055521e-28
2.253476162e-28
2.319000103e-28
2.387753869e-28
2.459867273e-28
2.535473397e-28
2.614708557e-28
2.697712265e-28
2.784627179e-28
2.875599053e-28
2.970776672e-28
3.07031178e-28
3.174359007e-28
3.283075776e-28
3.396622212e-28
3.51516104e-28
3.63885747e-28
3.767879085e-28
3.902395707e-28
4.042579268e-28
4.188603668e-28
4.340644624e-28
4.498879514e-28
4.663487217e-28
4.834647944e-28
5.012543063e-28
5.19735492e-28
5.389266653e-28
5.588462007e-28
5.79512514e-28
6.009440432e-28
6.231592282e-28
6.461764917e-28
6.700142193e-28
6.946907394e-28
7.202243044e-28
7.466330705e-28
7.739350799e-28
8.021482417e-28
8.312903145e-28
8.613788895e-28
8.924313744e-28
9.244649785e-28
9.574966991e-28
9.915433091e-28
1.026621346e-27
1.062747103e-27
1.099936622e-27
1.138205689e-27
1.177569829e-27
1.218044309e-27
1.259644139e-27
1.302384077e-27
1.346278638e-27
1.391342106e-27
1.43758855e-27
1.485031844e-27
1.533685688e-27
1.583563641e-27
1.63467915e-27
1.687045592e-27
1.740676314e-27
1.795584683e-27
1.851784144e-27
1.909288277e-27
1.968110873e-27
2.028266001e-27
2.089768096e-27
2.152632051e-27
2.216873314e-27
2.282507997e-27
2.349552993e-27
2.418026104e-27
2.487946181e-27
2.559333264e-27
2.632208751e-27
2.706595562e-27
2.782518326e-27
2.860003575e-27
2.939079955e-27
3.019778448e-27
3.102132613e-27
3.186178836e-27
3.271956604e-27
3.359508788e-27
3.448881947e-27
3.540126652e-27
3.633297829e-27
3.728455114e-27
3.825663238e-27
3.924992431e-27
4.026518847e-27
4.130325008e-27
4.236500286e-27
4.34514139e-27
4.456352901e-27
4.570247814e-27
4.686948127e-27
4.806585442e-27
4.929301612e-27
5.055249409e-27
5.184593232e-27
5.317509845e-27
5.454189158e-27
5.594835034e-27
5.739666152e-27
5.888916894e-27
6.042838292e-27
6.201699011e-27
6.365786389e-27
6.535407532e-27
6.710890465e-27
6.892585356e-27
7.080865811e-27
7.276130241e-27
7.478803346e-27
7.689337745e-27
7.908215905e-27
8.135952268e-27
8.37309376e-27
8.620214844e-27
8.87792538e-27
9.146872905e-27
9.427740507e-27
9.721254532e-27
1.002818609e-26
1.034935226e-26
1.068561843e-26
1.103790125e-26
1.140717169e-26
1.179445814e-26
1.220084914e-26
1.262749638e-26
1.307561981e-26
1.354651231e-26
1.40415312e-26
1.456211341e-26
1.510978119e-26
1.56861441e-26
1.629289345e-26
1.693180743e-26
1.760476368e-26
1.831374687e-26
1.906085451e-26
1.984830338e-26
2.067843678e-26
2.15537326e-26
2.247681251e-26
2.345045216e-26
2.447759277e-26
2.556135446e-26
2.670505151e-26
2.791221029e-26
2.918659031e-26
3.053220937e-26
3.195337373e-26
3.345471478e-26
3.504123394e-26
3.671835811e-26
3.849200863e-26
4.036868757e-26
4.235558639e-26
4.446072335e-26
4.669311816e-26
4.906301448e-26
5.158216465e-26
5.426419446e-26
5.7125072e-26
6.018371092e-26
6.346274787e-26
6.698954579e-26
7.079748964e-26
7.492766135e-26
7.943100631e-26
8.437113706e-26
8.982796338e-26
9.59023936e-26
1.027224253e-25
1.104510378e-25
1.192964203e-25
1.295252307e-25
1.414797829e-25
1.556003294e-25
1.724539528e-25
1.927720255e-25
2.174987835e-25
2.478543117e-25
2.854162193e-25
3.322255515e-25
3.909241335e-25
4.649326727e-25
5.586817185e-25
6.779111675e-25
8.300586552e-25
1.024763219e-24
1.27451844e-24
1.595519432e-24
2.008761218e-24
2.541463097e-24
3.228915791e-24
4.116876863e-24
5.264677207e-24
6.749249722e-24
8.670354076e-24
1.115735281e-23
1.437799966e-23
1.854983817e-23
2.395498625e-23
3.095931383e-23
4.003732008e-23
5.180440646e-23
6.705874757e-23
8.683561911e-23
1.124778962e-22
1.45727546e-22
1.88844383e-22
2.447602337e-22
3.172791044e-22
4.113371303e-22
5.333402367e-22
6.916028543e-22
8.969180974e-22
1.163299035e-21
1.508942752e-21
1.957484661e-21
2.539631233e-21
3.295286379e-21
4.27632239e-21
5.550193151e-21
7.204649127e-21
9.353895138e-21
1.21466398e-20
1.57766286e-20
2.049644269e-20
2.663559922e-20
3.462432781e-20
4.5024853e-20
5.857262485e-20
7.623076768e-20
9.926214091e-20
1.293249376e-19
1.685998454e-19
2.199596839e-19
2.871964339e-19
3.753261427e-19
4.909999947e-19
6.430608336e-19
8.433000318e-19
1.107491902e-18
1.456814934e-18
1.919815649e-18
2.535138774e-18
3.355347393e-18
4.452304902e-18
5.92481206e-18
7.909526029e-18
1.059669472e-17
1.425301476e-17
1.925511648e-17
2.613903703e-17
3.567395189e-17
4.897302749e-17
6.766155964e-17
9.413426226e-17
1.319524545e-16
1.864625981e-16
2.65767932e-16
3.822679523e-16
5.551185333e-16
8.141969432e-16
1.206547457e-15
1.806951511e-15
2.735418687e-15
4.186404135e-15
6.47810348e-15
1.01365124e-14
1.604041375e-14
2.567452593e-14
4.157726985e-14
6.81435986e-14
1.130845943e-13
1.90118032e-13
3.239939151e-13
5.59994204e-13
9.820729287e-13
1.747769889e-12
3.155777949e-12
5.777124545e-12
1.071017938e-11
2.007619644e-11
3.798061013e-11
7.237215632e-11
1.3862223e-10
2.663739197e-10
5.125426885e-10
9.857462491e-10
1.891647442e-09
3.615874285e-09
6.873025519e-09
1.296901636e-08
2.425218984e-08
4.486826649e-08
8.198499431e-08
1.47687993e-07
2.619473151e-07
4.562787566e-07
7.80773466e-07
1.308934624e-06
2.145954539e-06
3.40845323e-06
5.268595201e-06
7.880148848e-06
1.129378931e-05
1.524639091e-05
1.893054289e-05
2.116191108e-05
2.132351347e-05
1.98123828e-05
1.74726381e-05
1.498928241e-05
1.269960331e-05
1.080451938e-05
9.229588254e-06
7.893248985e-06
6.688726118e-06
5.599265641e-06
4.589495849e-06
3.669106376e-06
2.855132958e-06
2.169604002e-06
1.60967994e-06
1.170827936e-06
8.394580827e-07
5.968052558e-07
4.223821209e-07
2.973782552e-07
2.093358762e-07
1.467442071e-07
1.027800198e-07
7.183693005e-08
5.01311003e-08
3.495889586e-08
2.43913975e-08
1.695943646e-08
1.175738978e-08
8.153467007e-09
5.657372782e-09
3.928830689e-09
2.730944347e-09
1.899474966e-09
1.321190147e-09
9.179642829e-10
6.382337064e-10
4.480559297e-10
3.154804417e-10
2.215685946e-10
1.561107025e-10
1.10363784e-10
7.829151669e-11
5.573272488e-11
3.981362421e-11
2.855863967e-11
2.055632753e-11
1.485594137e-11
1.078218286e-11
7.861173459e-12
5.759463609e-12
4.241790836e-12
3.141724999e-12
2.341210482e-12
1.756272452e-12
1.327006282e-12
1.010550651e-12
7.761437221e-13
6.016368394e-13
4.71030148e-13
3.727262578e-13
2.982894785e-13
2.415619473e-13
1.980321575e-13
1.64382513e-13
1.381641724e-13
1.17562637e-13
1.012282155e-13
8.81530058e-14
7.758133344e-14
6.894432498e-14
6.181194998e-14
5.585774623e-14
5.083278494e-14
4.654638956e-14
4.285180775e-14
3.963552791e-14
3.680928669e-14
3.430406977e-14
3.206559401e-14
3.005089414e-14
2.822573559e-14
2.65626471e-14
2.503941991e-14
2.363795901e-14
2.234340099e-14
2.11434344e-14
2.002777418e-14
1.898775382e-14
1.80160077e-14
1.710622266e-14
1.625294295e-14
1.545141628e-14
1.469747198e-14
1.398742379e-14
1.331799217e-14
1.268624167e-14
1.208953025e-14
1.152546795e-14
1.099188301e-14
1.048679389e-14
1.0008386e-14
9.554992211e-15
9.125076436e-15
8.717219671e-15
8.330108061e-15
7.962522619e-15
7.613330314e-15
7.281476292e-15
6.965977049e-15
6.665914398e-15
6.380430117e-15
6.108721169e-15
5.850035419e-15
5.603667781e-15
5.368956726e-15
5.145281123e-15
4.932057364e-15
4.728736732e-15
4.534803003e-15
4.34977024e-15
4.173180763e-15
4.004603289e-15
3.843631203e-15
3.689880972e-15
3.542990665e-15
3.402618597e-15
3.268442053e-15
3.140156117e-15
3.017472574e-15
2.900118896e-15
2.787837289e-15
2.68038381e-15
2.577527542e-15
2.479049824e-15
2.384743531e-15
2.294412399e-15
2.207870398e-15
2.124941142e-15
2.045457337e-15
1.969260263e-15
1.896199291e-15
1.826131428e-15
1.758920891e-15
1.694438706e-15
1.632562331e-15
1.573175307e-15
1.516166921e-15
1.461431896e-15
1.4088701e-15
1.358386266e-15
1.309889734e-15
1.263294206e-15
1.218517515e-15
1.17548141e-15
1.134111348e-15
1.094336301e-15
1.056088578e-15
1.01930365e-15
9.839199871e-16
9.498789084e-16
9.171244352e-16
8.856031554e-16
8.552640941e-16
8.260585922e-16
7.979401906e-16
7.708645217e-16
7.447892057e-16
7.196737536e-16
6.954794743e-16
6.721693877e-16
6.497081416e-16
6.280619331e-16
6.071984348e-16
5.870867237e-16
5.67697215e-16
5.490015987e-16
5.309727791e-16
5.135848184e-16
4.968128823e-16
4.806331888e-16
4.650229596e-16
4.499603735e-16
4.354245229e-16
4.213953717e-16
4.078537157e-16
3.947811452e-16
3.821600088e-16
3.699733795e-16
3.58205022e-16
3.468393624e-16
3.358614584e-16
3.252569715e-16
3.150121405e-16
3.051137558e-16
2.955491362e-16
2.863061047e-16
2.773729676e-16
2.687384934e-16
2.603918926e-16
2.52322799e-16
2.445212519e-16
2.369776783e-16
2.296828771e-16
2.226280027e-16
2.158045509e-16
2.092043438e-16
2.028195169e-16
1.966425053e-16
1.906660321e-16
1.848830961e-16
1.792869602e-16
1.738711413e-16
1.686293993e-16
1.635557275e-16
1.58644343e-16
1.538896779e-16
1.492863705e-16
1.448292568e-16
1.405133631e-16
1.363338981e-16
1.322862455e-16
1.283659576e-16
1.245687482e-16
1.208904864e-16
1.173271905e-16
1.138750223e-16
1.105302813e-16
1.072893996e-16
1.041489365e-16
1.011055739e-16
9.815611151e-17
9.529746205e-17
9.252664733e-17
8.984079392e-17
8.723712918e-17
8.471297749e-17
8.226575655e-17
7.989297394e-17
7.759222368e-17
7.536118305e-17
7.31976095e-17
7.109933764e-17
6.906427638e-17
6.709040625e-17
6.51757767e-17
6.33185036e-17
6.151676684e-17
5.976880793e-17
5.807292782e-17
5.64274847e-17
5.483089199e-17
5.328161628e-17
5.177817547e-17
5.03191369e-17
4.89031156e-17
4.75287726e-17
4.619481326e-17
4.489998574e-17
4.364307944e-17
4.24229236e-17
4.123838585e-17
4.008837089e-17
3.89718192e-17
3.788770577e-17
3.683503891e-17
3.581285908e-17
3.48202378e-17
3.385627659e-17
3.292010587e-17
3.201088404e-17
3.112779648e-17
3.027005465e-17
2.943689517e-17
2.862757902e-17
2.784139064e-17
2.707763719e-17
2.633564777e-17
2.561477267e-17
2.491438268e-17
2.423386837e-17
2.357263945e-17
2.293012413e-17
2.230576851e-17
2.169903597e-17
2.11094066e-17
2.053637666e-17
1.997945805e-17
1.943817775e-17
1.89120774e-17
1.840071275e-17
1.790365323e-17
1.742048153e-17
1.69507931e-17
1.64941958e-17
1.605030947e-17
1.561876553e-17
1.519920665e-17
1.479128633e-17
1.43946686e-17
1.400902766e-17
1.363404756e-17
1.326942188e-17
1.291485343e-17
1.257005396e-17
1.223474387e-17
1.190865194e-17
1.159151508e-17
1.128307802e-17
1.098309313e-17
1.069132015e-17
1.040752596e-17
1.013148434e-17
9.862975798e-18
9.601787305e-18
9.347712142e-18
9.100549677e-18
8.860105184e-18
8.62618966e-18
8.398619649e-18
8.177217069e-18
7.961809046e-18
7.752227759e-18
7.548310277e-18
7.349898418e-18
7.156838596e-18
6.968981689e-18
6.786182895e-18
6.608301605e-18
6.435201275e-18
6.266749305e-18
6.102816915e-18
5.943279035e-18
5.788014187e-18
5.636904384e-18
5.489835019e-18
5.346694769e-18
5.207375491e-18
5.071772132e-18
4.939782634e-18
4.811307845e-18
4.686251434e-18
4.564519806e-18
4.44602202e-18
4.330669714e-18
4.218377023e-18
4.109060511e-18
4.002639097e-18
3.899033984e-18
3.798168595e-18
3.699968506e-18
3.604361385e-18
3.511276929e-18
3.420646802e-18
3.332404583e-18
3.246485707e-18
3.162827414e-18
3.08136869e-18
3.002050226e-18
2.92481436e-18
2.849605033e-18
2.776367745e-18
2.705049505e-18
2.635598791e-18
2.567965507e-18
2.502100942e-18
2.43795773e-18
2.375489811e-18
2.314652396e-18
2.255401927e-18
2.197696046e-18
2.141493556e-18
2.086754393e-18
2.033439589e-18
1.981511246e-18
1.930932502e-18
1.881667501e-18
1.833681368e-18
1.786940179e-18
1.741410933e-18
1.697061532e-18
1.653860745e-18
1.611778195e-18
1.570784327e-18
1.530850389e-18
1.491948407e-18
1.454051166e-18
1.417132187e-18
1.381165705e-18
1.346126653e-18
1.311990639e-18
1.27873393e-18
1.24633343e-18
1.214766666e-18
1.184011769e-18
1.154047459e-18
1.124853024e-18
1.096408311e-18
1.068693705e-18
1.041690116e-18
1.015378966e-18
9.897421733e-19
9.647621393e-19
9.404217348e-19
9.167042877e-19
8.935935702e-19
8.710737865e-19
8.491295614e-19
8.277459283e-19
8.069083183e-19
7.866025495e-19
7.668148159e-19
7.475316779e-19
7.287400516e-19
7.104271997e-19
6.925807218e-19
6.751885452e-19
6.582389163e-19
6.417203917e-19
6.256218297e-19
6.099323825e-19
5.946414882e-19
5.797388627e-19
5.652144925e-19
5.510586275e-19
5.372617737e-19
5.238146863e-19
5.107083633e-19
4.979340386e-19
4.854831757e-19
4.73347462e-19
4.615188022e-19
4.499893128e-19
4.387513165e-19
4.277973365e-19
4.171200911e-19
4.067124888e-19
3.965676229e-19
3.866787667e-19
3.770393688e-19
3.676430482e-19
3.584835902e-19
3.495549413e-19
3.408512056e-19
3.323666403e-19
3.240956515e-19
3.160327905e-19
3.0817275e-19
3.005103601e-19
2.930405848e-19
2.857585186e-19
2.786593827e-19
2.71738522e-19
2.649914017e-19
2.584136041e-19
2.520008255e-19
2.457488734e-19
2.396536633e-19
2.337112159e-19
2.279176546e-19
2.222692024e-19
2.167621797e-19
2.113930014e-19
2.061581746e-19
2.010542962e-19
1.960780502e-19
1.912262061e-19
1.86495616e-19
1.818832128e-19
1.773860078e-19
1.730010891e-19
1.68725619e-19
1.645568327e-19
1.604920358e-19
1.565286027e-19
1.52663975e-19
1.488956595e-19
1.452212264e-19
1.416383078e-19
1.381445962e-19
1.347378426e-19
1.314158551e-19
1.281764977e-19
1.250176881e-19
1.21937397e-19
1.189336464e-19
1.160045082e-19
1.131481028e-19
1.103625981e-19
1.076462079e-19
1.04997191e-19
1.024138496e-19
9.989452829e-20
9.743761306e-20
9.504152988e-20
9.270474372e-20
9.042575743e-20
8.82031107e-20
8.603537891e-20
8.392117219e-20
8.185913432e-20
7.984794176e-20
7.788630261e-20
7.597295566e-20
7.410666936e-20
7.228624087e-20
7.05104951e-20
6.87782837e-20
6.708848411e-20
6.543999857e-20
6.383175316e-20
6.226269681e-20
6.073180025e-20
5.923805503e-20
5.778047249e-20
5.63580827e-20
5.496993337e-20
5.361508872e-20
5.229262836e-20
5.100164608e-20
4.974124865e-20
4.851055454e-20
4.73086926e-20
4.613480073e-20
4.498802446e-20
4.38675155e-20
4.277243034e-20
4.170192866e-20
4.065517192e-20
3.963132182e-20
3.862953878e-20
3.764898054e-20
3.668880064e-20
3.574814713e-20
3.482616116e-20
3.392197644e-20
3.303471929e-20
3.216351146e-20
3.130747863e-20
3.046577172e-20
2.372582707e-20
1.68737988e-20
1.199165452e-20
8.512110408e-21
6.034633413e-21
4.272681764e-21
3.021122913e-21
2.133230795e-21
1.504158796e-21
1.059063363e-21
7.445774321e-22
5.226920547e-22
3.663698487e-22
2.564025732e-22
1.791621974e-22
1.249930274e-22
8.706353976e-23
6.054739646e-23
4.203999061e-23
2.914331761e-23
2.017102273e-23
1.393909968e-23
9.617602913e-24
6.625731868e-24
4.557718254e-24
3.130556879e-24
2.147198824e-24
1.47067827e-24
1.005953996e-24
6.871886768e-25
4.688518633e-25
3.195092147e-25
2.174940196e-25
1.478962876e-25
1.004719021e-25
6.819337366e-26
4.624703786e-26
3.134042582e-26
2.122466919e-26
1.436575414e-26
9.718608592e-27
6.572107587e-27
4.442901165e-27
3.00279734e-27
2.029167593e-27
1.371122768e-27
9.264753193e-28
6.260676452e-28
4.231236753e-28
2.86021367e-28
1.933920007e-28
1.308001801e-28
8.849642886e-29
5.989701048e-29
4.055621353e-29
2.747195816e-29
1.861680001e-29
1.262126403e-29
8.560087277e-30
5.807938338e-30
3.94203942e-30
2.676440464e-30
1.817649431e-30
1.234674863e-30
8.387931403e-31
5.698789957e-31
3.871663266e-31
2.630009508e-31
1.786140239e-31
1.212612759e-31
8.228547023e-32
5.580344662e-32
3.781591727e-32
2.560350277e-32
1.731679703e-32
1.169790696e-32
7.891280415e-33
5.315069001e-33
3.573666595e-33
2.398173195e-33
1.605928977e-33
1.072937445e-33
7.150362751e-34
4.752359717e-34
3.149483211e-34
2.080739605e-34
1.370196852e-34
8.991485621e-35
5.879169593e-35
3.829867595e-35
2.484723198e-35
1.605767622e-35
1.033170785e-35
6.620576707e-36
4.224475103e-36
2.683730734e-36
1.698071528e-36
1.070829577e-36
6.726025395e-37
4.221483164e-37
2.645381138e-37
1.661339824e-37
1.052613141e-37
6.718272172e-38
4.44095648e-38
2.971882629e-38
2.139029116e-38
1.595457528e-38
1.262545656e-38
1.068288022e-38
9.486551708e-39
8.892151815e-39
8.537771372e-39
8.285139505e-39
8.120345908e-39
7.969530186e-39
7.811873455e-39
7.999053231e-39
7.989850181e-39
7.837290732e-39
7.886150235e-39
7.916770683e-39
7.896186603e-39
7.95400465e-39
7.90740225e-39
7.925180861e-39
7.902924561e-39
7.901579549e-39
7.857756623e-39
7.929386135e-39
7.918595395e-39
7.884525736e-39
7.902924161e-39
7.807664496e-39
7.918180763e-39
7.891390605e-39
7.95259276e-39
7.939590432e-39
7.907414637e-39
7.804539506e-39
7.833071992e-39
7.984082969e-39
8.119199198e-39
7.779211368e-39
7.773820335e-39
7.967729226e-39
7.871486292e-39
7.979605097e-39
7.976434458e-39
7.778058957e-39
7.657153803e-39
7.85164598e-39
7.890301457e-39
7.686124648e-39
7.979955997e-39
7.799874322e-39
7.886263916e-39
7.745405148e-39
7.773239816e-39
7.960669433e-39
7.771871586e-39
8.013385823e-39
7.588170889e-39
7.972800636e-39
7.781129277e-39
8.124907859e-39
7.853229192e-39
7.786618352e-39
8.215807787e-39
8.008628779e-39
7.843738406e-39
7.597527617e-39
7.683866224e-39
7.964209407e-39
7.769538954e-39
8.006473486e-39
7.659131882e-39
7.912927085e-39
7.869659602e-39
8.038817246e-39
7.786514108e-39
7.848237519e-39
7.926516893e-39
8.077178689e-39
7.957693461e-39
8.098415491e-39
8.389770346e-39
8.021954763e-39
7.909397824e-39
7.895874563e-39
8.012779782e-39
7.840824428e-39
8.300353935e-39
7.837724311e-39
7.878276391e-39
7.810189881e-39
8.004223597e-39
8.241532686e-39
7.87973299e-39
7.903555131e-39
7.746259017e-39
8.008577884e-39
7.719069813e-39
7.969122419e-39
7.962263056e-39
8.033685471e-39
7.94153406e-39
7.830689257e-39
7.891002147e-39
7.885273484e-39
7.971374234e-39
7.864573478e-39
7.972756874e-39
7.789151692e-39
7.84550512e-39
7.923944709e-39
7.932636635e-39
7.860298441e-39
7.82243813e-39
8.00342991e-39
7.895379313e-39
7.889362431e-39
7.879504184e-39
7.913500506e-39
7.909210643e-39
7.929606148e-39
7.88521809e-39
7.887332036e-39
7.932465104e-39
7.892715415e-39
7.877728358e-39
7.92165464e-39
7.913659252e-39
7.894129704e-39
7.939291902e-39
7.912549354e-39
7.77989048e-39
7.831469383e-39
7.842369769e-39
7.607003427e-39
7.93180858e-39
7.864903596e-39
8.028466533e-39
7.893277168e-39
7.777156261e-39
7.989056206e-39
7.861372478e-39
7.909053483e-39
8.034584933e-39
8.124311559e-39
)
;

boundaryField
{
    inlet
    {
        type            fixedValue;
        value           uniform 0;
    }
    outlet
    {
        type            zeroGradient;
    }
    wall
    {
        type            empty;
    }
}


// ************************************************************************* //
