/*--------------------------------*- C++ -*----------------------------------*\
  =========                 |
  \\      /  F ield         | OpenFOAM: The Open Source CFD Toolbox
   \\    /   O peration     | Website:  https://openfoam.org
    \\  /    A nd           | Version:  7
     \\/     M anipulation  |
\*---------------------------------------------------------------------------*/
FoamFile
{
    version     2.0;
    format      ascii;
    class       volScalarField;
    location    "0.000558243009";
    object      NC3H7CO_0;
}
// * * * * * * * * * * * * * * * * * * * * * * * * * * * * * * * * * * * * * //

dimensions      [0 0 0 0 0 0 0];

internalField   nonuniform List<scalar> 
1500
(
2.307263115e-28
1.154638244e-27
3.034523059e-27
5.5174358e-27
7.857399292e-27
9.543519458e-27
1.052276267e-26
1.09998323e-26
1.120125036e-26
1.127765158e-26
1.13056013e-26
1.131728164e-26
1.132417494e-26
1.132967288e-26
1.133448181e-26
1.133861706e-26
1.134203172e-26
1.134475613e-26
1.134688389e-26
1.134852703e-26
1.13497819e-26
1.135071549e-26
1.135136847e-26
1.135176702e-26
1.135193579e-26
1.135190687e-26
1.135172283e-26
1.135143455e-26
1.135109586e-26
1.135075738e-26
1.135046157e-26
1.135023976e-26
1.135011151e-26
1.135008579e-26
1.135016301e-26
1.135033733e-26
1.135059878e-26
1.135093482e-26
1.135133142e-26
1.135177381e-26
1.13522469e-26
1.135273584e-26
1.135322654e-26
1.135370631e-26
1.135416453e-26
1.135459312e-26
1.13549868e-26
1.135534313e-26
1.13556622e-26
1.135594616e-26
1.13561986e-26
1.135642385e-26
1.13566264e-26
1.135681031e-26
1.135697885e-26
1.135713426e-26
1.135727764e-26
1.135740894e-26
1.135752711e-26
1.135763022e-26
1.135771571e-26
1.135778056e-26
1.135782157e-26
1.135783548e-26
1.135781929e-26
1.135777036e-26
1.135768667e-26
1.135756695e-26
1.135741085e-26
1.135721902e-26
1.13569932e-26
1.135673623e-26
1.135645204e-26
1.135614556e-26
1.135582257e-26
1.135548959e-26
1.135515365e-26
1.13548221e-26
1.135450238e-26
1.13542018e-26
1.135392734e-26
1.135368548e-26
1.1353482e-26
1.135332186e-26
1.135320909e-26
1.135314671e-26
1.13531367e-26
1.135317994e-26
1.135327629e-26
1.135342452e-26
1.135362244e-26
1.135386691e-26
1.135415393e-26
1.135447874e-26
1.13548359e-26
1.135521946e-26
1.135562308e-26
1.135604018e-26
1.135646411e-26
1.135688832e-26
1.135730652e-26
1.135771289e-26
1.135810216e-26
1.135846984e-26
1.135881225e-26
1.135912666e-26
1.135941131e-26
1.135966543e-26
1.135988916e-26
1.136008354e-26
1.136025032e-26
1.136039189e-26
1.136051102e-26
1.13606108e-26
1.136069435e-26
1.136076475e-26
1.136082482e-26
1.136087704e-26
1.136092347e-26
1.136096567e-26
1.136100472e-26
1.136104124e-26
1.136107543e-26
1.136110714e-26
1.136113598e-26
1.136116137e-26
1.136118268e-26
1.136119929e-26
1.13612106e-26
1.136121615e-26
1.136121559e-26
1.136120867e-26
1.136119525e-26
1.136117524e-26
1.136114855e-26
1.136111505e-26
1.136107453e-26
1.136102665e-26
1.136097089e-26
1.136090661e-26
1.136083298e-26
1.136074905e-26
1.136065379e-26
1.136054612e-26
1.136042503e-26
1.136028959e-26
1.136013907e-26
1.135997296e-26
1.135979109e-26
1.135959361e-26
1.135938107e-26
1.13591544e-26
1.13589149e-26
1.135866424e-26
1.135840441e-26
1.135813766e-26
1.135786645e-26
1.135759338e-26
1.135732113e-26
1.135705241e-26
1.135678989e-26
1.135653617e-26
1.135629376e-26
1.135606503e-26
1.135585224e-26
1.135565751e-26
1.135548287e-26
1.135533021e-26
1.135520138e-26
1.13550981e-26
1.135502203e-26
1.135497474e-26
1.135495766e-26
1.135497207e-26
1.135501905e-26
1.13550994e-26
1.135521358e-26
1.135536164e-26
1.135554314e-26
1.135575707e-26
1.135600178e-26
1.135627494e-26
1.135657346e-26
1.135689347e-26
1.135723032e-26
1.13575786e-26
1.135793218e-26
1.135828429e-26
1.13586277e-26
1.135895486e-26
1.135925811e-26
1.135952996e-26
1.135976339e-26
1.135995209e-26
1.136009076e-26
1.136017534e-26
1.136020318e-26
1.13601731e-26
1.136008543e-26
1.135994184e-26
1.135974518e-26
1.135949915e-26
1.135920807e-26
1.135887654e-26
1.135850921e-26
1.135811068e-26
1.135768549e-26
1.135723827e-26
1.135677403e-26
1.135629848e-26
1.135581845e-26
1.135534214e-26
1.135487918e-26
1.135444045e-26
1.135403745e-26
1.135368131e-26
1.135338134e-26
1.13531433e-26
1.135296749e-26
1.135284691e-26
1.135276573e-26
1.135269839e-26
1.135260967e-26
1.135245584e-26
1.135218715e-26
1.135175163e-26
1.13511e-26
1.135019144e-26
1.134899966e-26
1.134751861e-26
1.134576715e-26
1.134379181e-26
1.134166706e-26
1.133949234e-26
1.133738575e-26
1.133547425e-26
1.133388086e-26
1.133270955e-26
1.133202921e-26
1.133185801e-26
1.133215024e-26
1.133278767e-26
1.133357857e-26
1.133426912e-26
1.13345766e-26
1.133426067e-26
1.133325261e-26
1.133183259e-26
1.133071259e-26
1.133059469e-26
1.133070685e-26
1.133075606e-26
1.13308174e-26
1.133089173e-26
1.133097994e-26
1.133108298e-26
1.133120184e-26
1.133133759e-26
1.133149132e-26
1.133166419e-26
1.133185743e-26
1.133207232e-26
1.133231019e-26
1.133257245e-26
1.133286059e-26
1.133317614e-26
1.133352074e-26
1.133389609e-26
1.133430399e-26
1.133474631e-26
1.133522503e-26
1.133574222e-26
1.133630006e-26
1.133690082e-26
1.133754692e-26
1.133824088e-26
1.133898533e-26
1.133978307e-26
1.134063702e-26
1.134155026e-26
1.134252602e-26
1.13435677e-26
1.13446789e-26
1.134586337e-26
1.134712508e-26
1.134846821e-26
1.134989717e-26
1.135141659e-26
1.135303135e-26
1.135474663e-26
1.135656784e-26
1.135850073e-26
1.136055136e-26
1.136272613e-26
1.136503177e-26
1.136747544e-26
1.137006468e-26
1.137280747e-26
1.137571224e-26
1.137878792e-26
1.138204397e-26
1.138549041e-26
1.138913782e-26
1.139299746e-26
1.139708123e-26
1.140140175e-26
1.140597244e-26
1.141080749e-26
1.141592199e-26
1.142133197e-26
1.142705442e-26
1.143310741e-26
1.143951012e-26
1.144628296e-26
1.145344759e-26
1.146102707e-26
1.146904588e-26
1.147753009e-26
1.148650742e-26
1.149600733e-26
1.15060612e-26
1.151670239e-26
1.152796639e-26
1.1539891e-26
1.15525164e-26
1.156588538e-26
1.158004344e-26
1.159503901e-26
1.161092363e-26
1.162775213e-26
1.164558282e-26
1.166447775e-26
1.168450291e-26
1.170572846e-26
1.172822902e-26
1.17520839e-26
1.177737742e-26
1.180419915e-26
1.183264428e-26
1.186281388e-26
1.18948153e-26
1.192876247e-26
1.196477633e-26
1.200298515e-26
1.204352499e-26
1.208654008e-26
1.213218331e-26
1.218061661e-26
1.223201149e-26
1.228654951e-26
1.234442278e-26
1.240583451e-26
1.247099951e-26
1.254014483e-26
1.261351025e-26
1.269134898e-26
1.277392818e-26
1.286152966e-26
1.295445053e-26
1.305300382e-26
1.31575192e-26
1.32683437e-26
1.338584236e-26
1.351039901e-26
1.364241699e-26
1.378231991e-26
1.393055238e-26
1.408758082e-26
1.425389422e-26
1.443000491e-26
1.461644935e-26
1.481378895e-26
1.502261082e-26
1.524352858e-26
1.547718313e-26
1.572424346e-26
1.598540737e-26
1.626140228e-26
1.655298595e-26
1.686094721e-26
1.718610667e-26
1.752931743e-26
1.789146572e-26
1.827347156e-26
1.867628934e-26
1.910090841e-26
1.954835362e-26
2.00196858e-26
2.051600221e-26
2.103843695e-26
2.158816132e-26
2.216638408e-26
2.277435175e-26
2.341334874e-26
2.408469749e-26
2.478975852e-26
2.552993037e-26
2.630664959e-26
2.712139047e-26
2.797566487e-26
2.887102185e-26
2.980904728e-26
3.079136333e-26
3.181962788e-26
3.289553386e-26
3.402080849e-26
3.51972124e-26
3.642653873e-26
3.771061205e-26
3.905128724e-26
4.04504483e-26
4.191000699e-26
4.343190147e-26
4.501809479e-26
4.667057331e-26
4.839134509e-26
5.018243807e-26
5.204589836e-26
5.398378826e-26
5.599818438e-26
5.809117559e-26
6.026486097e-26
6.252134768e-26
6.486274883e-26
6.729118125e-26
6.980876333e-26
7.241761273e-26
7.51198442e-26
7.791756728e-26
8.081288417e-26
8.380788749e-26
8.690465815e-26
9.010526325e-26
9.341175409e-26
9.682616422e-26
1.003505076e-25
1.039867768e-25
1.077369418e-25
1.116029479e-25
1.15586715e-25
1.196901366e-25
1.239150783e-25
1.28263378e-25
1.32736845e-25
1.373372601e-25
1.420663759e-25
1.469259174e-25
1.519175828e-25
1.570430447e-25
1.623039524e-25
1.677019333e-25
1.732385965e-25
1.78915535e-25
1.847343301e-25
1.906965557e-25
1.968037827e-25
2.030575853e-25
2.094595465e-25
2.16011266e-25
2.227143671e-25
2.29570506e-25
2.365813809e-25
2.437487426e-25
2.510744058e-25
2.585602612e-25
2.662082895e-25
2.740205754e-25
2.819993237e-25
2.901468761e-25
2.984657295e-25
3.069585556e-25
3.156282219e-25
3.244778146e-25
3.335106619e-25
3.427303605e-25
3.521408026e-25
3.617462052e-25
3.715511411e-25
3.815605721e-25
3.917798835e-25
4.022149219e-25
4.128720339e-25
4.237581081e-25
4.34880619e-25
4.462476732e-25
4.578680589e-25
4.697512974e-25
4.819076974e-25
4.94348413e-25
5.070855038e-25
5.201319985e-25
5.335019619e-25
5.472105652e-25
5.612741598e-25
5.757103547e-25
5.905380979e-25
6.057777617e-25
6.214512319e-25
6.375820018e-25
6.541952702e-25
6.713180443e-25
6.889792475e-25
7.072098318e-25
7.260428962e-25
7.455138105e-25
7.656603438e-25
7.865228009e-25
8.08144163e-25
8.305702373e-25
8.538498123e-25
8.780348222e-25
9.031805195e-25
9.293456572e-25
9.565926675e-25
9.849879247e-25
1.014601895e-24
1.045509343e-24
1.077789588e-24
1.111526711e-24
1.146809805e-24
1.183733242e-24
1.22239694e-24
1.262906639e-24
1.305374201e-24
1.349917914e-24
1.396662817e-24
1.445741051e-24
1.497292212e-24
1.551463706e-24
1.608411231e-24
1.668299149e-24
1.731300957e-24
1.79759978e-24
1.867388974e-24
1.940872682e-24
2.018266369e-24
2.099797484e-24
2.185706164e-24
2.276245999e-24
2.371684872e-24
2.472305872e-24
2.578408324e-24
2.690308934e-24
2.808343083e-24
2.93286631e-24
3.064256017e-24
3.202913454e-24
3.349266061e-24
3.503770248e-24
3.666914738e-24
3.839224622e-24
4.021266315e-24
4.213653683e-24
4.417055643e-24
4.632205682e-24
4.859913823e-24
5.101081762e-24
5.35672208e-24
5.627982734e-24
5.916178352e-24
6.222830336e-24
6.549718371e-24
6.898946674e-24
7.273029351e-24
7.675000491e-24
8.108556311e-24
8.578238817e-24
9.089673278e-24
9.649875435e-24
1.026764907e-23
1.095410075e-23
1.172330632e-23
1.259317431e-23
1.358656432e-23
1.473273617e-23
1.606922756e-23
1.764428734e-23
1.952002896e-23
2.177651719e-23
2.451706482e-23
2.787509741e-23
3.202305056e-23
3.718390137e-23
4.36461141e-23
5.178301063e-23
6.207787551e-23
7.515649281e-23
9.182931424e-23
1.131461085e-22
1.404667846e-22
1.755531749e-22
2.206879772e-22
2.788288909e-22
3.538083541e-22
4.505923701e-22
5.756158954e-22
7.372174258e-22
9.462021114e-22
1.216571396e-21
1.566468405e-21
2.019402852e-21
2.605838083e-21
3.365247263e-21
4.348777362e-21
5.622700508e-21
7.272885366e-21
9.410589879e-21
1.217996573e-20
1.576778018e-20
2.041601019e-20
2.643815732e-20
3.42403822e-20
4.434888195e-20
5.74453544e-20
7.441293696e-20
9.639571357e-20
1.24875796e-19
1.617731696e-19
2.095750241e-19
2.715032788e-19
3.517315769e-19
4.556663603e-19
5.903109467e-19
7.647371225e-19
9.906960041e-19
1.283409305e-18
1.6625943e-18
2.153791527e-18
2.790084684e-18
3.614328625e-18
4.682035643e-18
6.065114678e-18
7.856715696e-18
1.017750618e-17
1.318380356e-17
1.7078113e-17
2.212278299e-17
2.865770259e-17
3.712323831e-17
4.808996499e-17
6.229720658e-17
8.070300252e-17
1.045488934e-16
1.354439291e-16
1.754736116e-16
2.273411819e-16
2.94550856e-16
3.816454572e-16
4.945145503e-16
6.407938975e-16
8.303830778e-16
1.076115783e-15
1.394626978e-15
1.807473161e-15
2.342576773e-15
3.036083492e-15
3.934741673e-15
5.098935643e-15
6.606526879e-15
8.557675219e-15
1.108081844e-14
1.43399701e-14
1.854343177e-14
2.395387538e-14
3.089948936e-14
3.978543844e-14
5.110419026e-14
6.544224079e-14
8.347939034e-14
1.059750417e-13
1.337342789e-13
1.675453561e-13
2.080808327e-13
2.557586661e-13
3.105692337e-13
3.718910394e-13
4.38340745e-13
5.077256462e-13
5.771744289e-13
6.43495325e-13
7.037371549e-13
7.558247128e-13
7.990626072e-13
8.343193737e-13
8.638371991e-13
8.908210417e-13
9.191544679e-13
9.535994032e-13
1.000560308e-12
1.06915146e-12
1.172343146e-12
1.328472736e-12
1.563814041e-12
1.916852331e-12
2.444785171e-12
3.232874472e-12
4.407554595e-12
6.153398056e-12
8.742255508e-12
1.254815198e-11
1.81469337e-11
2.630225227e-11
3.807167324e-11
5.43408681e-11
7.626675411e-11
1.047601679e-10
1.391784653e-10
1.754862415e-10
2.051894764e-10
2.186231846e-10
2.126257034e-10
1.930269287e-10
1.685852474e-10
1.457527004e-10
1.27331826e-10
1.146525995e-10
1.066919699e-10
1.023338603e-10
1.004637932e-10
1.001761864e-10
1.006797997e-10
1.014867112e-10
1.027196948e-10
1.037726732e-10
1.040837788e-10
1.031863141e-10
1.00749089e-10
9.662845256e-11
9.084331586e-11
8.35900388e-11
7.532398284e-11
6.643495515e-11
5.754374347e-11
4.899985421e-11
4.110596451e-11
3.404662691e-11
2.789852922e-11
2.261526356e-11
1.81326606e-11
1.443129483e-11
1.141128039e-11
8.974727437e-12
7.029724705e-12
5.487041833e-12
4.272541488e-12
3.320823145e-12
2.575911518e-12
2.003482885e-12
1.556898993e-12
1.206132937e-12
9.343772502e-13
7.238805112e-13
5.608504479e-13
4.345971451e-13
3.368363507e-13
2.611840411e-13
2.025867231e-13
1.572192407e-13
1.220875422e-13
9.487347205e-14
7.378340866e-14
5.743037768e-14
4.474230511e-14
3.489072052e-14
2.723544458e-14
2.128174539e-14
1.664719698e-14
1.303607412e-14
1.021958368e-14
8.020611226e-15
6.301955527e-15
4.957254571e-15
3.903986983e-15
3.07807301e-15
2.429708034e-15
1.920145793e-15
1.519213443e-15
1.203390755e-15
9.543243283e-16
7.57677419e-16
6.02238849e-16
4.792320395e-16
3.817787422e-16
3.044824441e-16
2.431044262e-16
1.943116195e-16
1.55480146e-16
1.245420871e-16
9.986584449e-17
8.016262632e-17
6.441327769e-17
5.18109651e-17
4.171623153e-17
3.362171285e-17
2.712440834e-17
2.190386379e-17
1.770498753e-17
1.432450049e-17
1.160024015e-17
9.40270781e-18
7.628381558e-18
6.194420182e-18
5.034464264e-18
4.095303537e-18
3.334228967e-18
2.716926657e-18
2.215800946e-18
1.80863785e-18
1.477538675e-18
1.208068319e-18
9.885743564e-19
8.096421191e-19
6.636581781e-19
5.444603237e-19
4.470566322e-19
3.673997689e-19
3.022054967e-19
2.488065972e-19
2.050351862e-19
1.691278197e-19
1.396489083e-19
1.154288534e-19
9.551403269e-20
7.912633011e-20
6.563036173e-20
5.450691231e-20
4.533138782e-20
3.775632274e-20
3.149716805e-20
2.632073557e-20
2.203579491e-20
1.848541639e-20
1.554073089e-20
1.309584106e-20
1.106366797e-20
9.372559329e-21
7.963517391e-21
6.787931807e-21
5.80572427e-21
4.983829076e-21
4.294947955e-21
3.716529009e-21
3.229928918e-21
2.819725006e-21
2.473150056e-21
2.179627679e-21
1.930390092e-21
1.71816352e-21
1.536909062e-21
1.381609169e-21
1.248091557e-21
1.132883912e-21
1.033093955e-21
9.46310356e-22
8.70520842e-22
8.040444624e-22
7.454755454e-22
6.936372899e-22
6.475433143e-22
6.063657919e-22
5.69409006e-22
5.360874142e-22
5.059074219e-22
4.784522434e-22
4.533693101e-22
4.303597957e-22
4.091698932e-22
3.89583549e-22
3.714164058e-22
3.545107478e-22
3.387312813e-22
3.239616096e-22
3.101012838e-22
2.970633376e-22
2.84772219e-22
2.731620593e-22
2.621752182e-22
2.517610637e-22
2.418749446e-22
2.324773264e-22
2.235330624e-22
2.150107791e-22
2.068823563e-22
1.991224877e-22
1.91708308e-22
1.846190762e-22
1.778359067e-22
1.713415396e-22
1.651201452e-22
1.591571562e-22
1.534391238e-22
1.479535943e-22
1.426890025e-22
1.376345798e-22
1.32780274e-22
1.281166802e-22
1.236349801e-22
1.193268894e-22
1.151846108e-22
1.112007935e-22
1.073684968e-22
1.036811582e-22
1.001325644e-22
9.671682641e-23
9.342835592e-23
9.026184527e-23
8.721224856e-23
8.427476484e-23
8.144482279e-23
7.871806668e-23
7.609034363e-23
7.355769177e-23
7.111632952e-23
6.876264551e-23
6.649318933e-23
6.430466301e-23
6.219391299e-23
6.015792271e-23
5.819380564e-23
5.629879881e-23
5.447025668e-23
5.270564547e-23
5.100253775e-23
4.935860737e-23
4.777162475e-23
4.623945231e-23
4.476004026e-23
4.333142255e-23
4.195171309e-23
4.061910214e-23
3.933185289e-23
3.808829818e-23
3.688683751e-23
3.572593401e-23
3.460411174e-23
3.351995301e-23
3.247209587e-23
3.145923172e-23
3.048010304e-23
2.95335012e-23
2.861826439e-23
2.773327566e-23
2.687746105e-23
2.604978777e-23
2.524926248e-23
2.447492969e-23
2.372587018e-23
2.300119951e-23
2.230006657e-23
2.162165229e-23
2.096516826e-23
2.032985554e-23
1.971498345e-23
1.911984844e-23
1.854377299e-23
1.79861046e-23
1.744621476e-23
1.692349803e-23
1.641737109e-23
1.592727192e-23
1.545265892e-23
1.499301012e-23
1.454782244e-23
1.411661092e-23
1.369890803e-23
1.329426301e-23
1.29022412e-23
1.252242346e-23
1.215440552e-23
1.179779746e-23
1.145222313e-23
1.111731967e-23
1.079273697e-23
1.047813717e-23
1.017319428e-23
9.877593637e-24
9.591031557e-24
9.313214882e-24
9.043860608e-24
8.782695501e-24
8.529455738e-24
8.283886559e-24
8.045741935e-24
7.814784247e-24
7.590783977e-24
7.373519416e-24
7.162776375e-24
6.958347918e-24
6.760034093e-24
6.567641687e-24
6.380983977e-24
6.199880502e-24
6.024156834e-24
5.853644369e-24
5.688180114e-24
5.527606488e-24
5.371771134e-24
5.220526731e-24
5.073730817e-24
4.931245621e-24
4.792937894e-24
4.658678752e-24
4.528343528e-24
4.401811618e-24
4.278966346e-24
4.159694824e-24
4.043887824e-24
3.931439649e-24
3.822248014e-24
3.716213927e-24
3.613241576e-24
3.513238224e-24
3.4161141e-24
3.3217823e-24
3.230158689e-24
3.14116181e-24
3.054712789e-24
2.970735251e-24
2.889155237e-24
2.809901121e-24
2.73290353e-24
2.658095274e-24
2.585411269e-24
2.514788469e-24
2.446165798e-24
2.379484085e-24
2.314685999e-24
2.251715993e-24
2.19052024e-24
2.131046581e-24
2.073244467e-24
2.017064908e-24
1.962460423e-24
1.90938499e-24
1.857793998e-24
1.807644201e-24
1.758893678e-24
1.711501782e-24
1.665429109e-24
1.620637449e-24
1.577089755e-24
1.534750101e-24
1.493583646e-24
1.453556605e-24
1.414636208e-24
1.376790673e-24
1.339989172e-24
1.304201803e-24
1.269399558e-24
1.235554298e-24
1.202638723e-24
1.170626346e-24
1.139491469e-24
1.109209158e-24
1.079755218e-24
1.051106171e-24
1.023239231e-24
9.961322896e-25
9.697638853e-25
9.441131911e-25
9.191599913e-25
8.948846637e-25
8.712681612e-25
8.482919939e-25
8.259382123e-25
8.041893907e-25
7.830286109e-25
7.624394471e-25
7.424059507e-25
7.229126356e-25
7.039444648e-25
6.854868359e-25
6.675255685e-25
6.500468916e-25
6.330374306e-25
6.164841961e-25
6.003745717e-25
5.846963031e-25
5.694374873e-25
5.545865621e-25
5.401322954e-25
5.260637762e-25
5.123704044e-25
4.990418817e-25
4.860682026e-25
4.734396462e-25
4.611467668e-25
4.491803868e-25
4.37531588e-25
4.261917044e-25
4.151523148e-25
4.044052351e-25
3.93942512e-25
3.837564156e-25
3.738394335e-25
3.64184264e-25
3.547838101e-25
3.456311733e-25
3.367196484e-25
3.280427172e-25
3.195940436e-25
3.113674679e-25
3.033570022e-25
2.955568247e-25
2.879612758e-25
2.805648526e-25
2.733622049e-25
2.663481308e-25
2.59517572e-25
2.528656103e-25
2.463874629e-25
2.400784793e-25
2.339341368e-25
2.279500372e-25
2.221219035e-25
2.164455758e-25
2.109170086e-25
2.055322671e-25
2.002875244e-25
1.951790582e-25
1.90203248e-25
1.853565721e-25
1.806356049e-25
1.760370142e-25
1.715575584e-25
1.671940841e-25
1.629435238e-25
1.588028931e-25
1.547692886e-25
1.508398856e-25
1.470119358e-25
1.432827654e-25
1.396497729e-25
1.361104269e-25
1.326622644e-25
1.293028888e-25
1.26029968e-25
1.228412328e-25
1.197344748e-25
1.167075453e-25
1.13758353e-25
1.108848626e-25
1.080850938e-25
1.053571189e-25
1.02699062e-25
1.001090972e-25
9.758544769e-26
9.51263838e-26
9.273022212e-26
9.039532409e-26
8.812009482e-26
8.590298184e-26
8.374247399e-26
8.163710024e-26
7.958542866e-26
7.758606528e-26
7.563765313e-26
7.373887116e-26
7.188843332e-26
7.008508758e-26
6.832761501e-26
6.661482888e-26
6.49455738e-26
6.331872486e-26
6.173318681e-26
6.018789324e-26
5.868180583e-26
5.721391358e-26
5.578323204e-26
5.438880267e-26
5.302969206e-26
5.17049913e-26
5.041381531e-26
4.91553022e-26
4.792861262e-26
4.673292923e-26
4.556745601e-26
4.443141776e-26
4.332405951e-26
4.2244646e-26
4.119246111e-26
4.016680741e-26
3.916700558e-26
3.8192394e-26
3.724232825e-26
3.63161806e-26
3.541333966e-26
3.453320986e-26
3.367521104e-26
3.283877809e-26
3.202336047e-26
3.122842189e-26
3.045343985e-26
2.969790535e-26
2.896132247e-26
2.824320803e-26
2.754309126e-26
2.686051343e-26
2.619502758e-26
2.554619812e-26
2.491360059e-26
2.429682132e-26
2.369545711e-26
2.310911499e-26
2.253741189e-26
2.197997439e-26
2.143643841e-26
2.090644897e-26
2.038965993e-26
1.988573369e-26
1.939434098e-26
1.891516058e-26
1.844787907e-26
1.799219061e-26
1.754779666e-26
1.711440576e-26
1.669173328e-26
1.627950119e-26
1.587743783e-26
1.548527761e-26
1.510276086e-26
1.472963352e-26
1.436564691e-26
1.40105575e-26
1.366412663e-26
1.332612028e-26
1.299630879e-26
1.267446659e-26
1.236037191e-26
1.205380651e-26
1.17545554e-26
1.146240648e-26
1.117715025e-26
1.089857948e-26
1.062648886e-26
1.036067465e-26
1.010093434e-26
9.84706626e-27
9.598869299e-27
9.356142563e-27
9.11868513e-27
8.886295855e-27
8.658773284e-27
8.435915622e-27
8.217520864e-27
8.003386685e-27
7.793310543e-27
7.587088789e-27
7.384514641e-27
7.185374387e-27
5.590790548e-27
3.971657884e-27
2.819797546e-27
2.000145561e-27
1.417312074e-27
1.003251556e-27
7.093754581e-28
5.010111494e-28
3.53433806e-28
2.490257166e-28
1.752439557e-28
1.231666856e-28
8.645393662e-29
6.060506892e-29
4.242859412e-29
2.966389984e-29
2.071160691e-29
1.444152451e-29
1.005600637e-29
6.992824669e-30
4.856211888e-30
3.367950276e-30
2.332726864e-30
1.613620399e-30
1.114779912e-30
7.692015519e-31
5.301140217e-31
3.6491636e-31
2.509174266e-31
1.723463595e-31
1.182576267e-31
8.106540032e-32
5.551957973e-32
3.799158335e-32
2.59768561e-32
1.774892964e-32
1.21191824e-32
8.270271567e-33
5.640811433e-33
3.845643499e-33
2.620789578e-33
1.785503618e-33
1.216141106e-33
8.28189028e-34
5.639298154e-34
3.839686142e-34
2.614369948e-34
1.780164862e-34
1.212259546e-34
8.256302881e-35
5.624190897e-35
3.831829668e-35
2.611210764e-35
1.779926121e-35
1.213619491e-35
8.2771932e-36
5.64436127e-36
3.851271899e-36
2.628608277e-36
1.793710937e-36
1.223979867e-36
8.358799829e-37
5.701065076e-37
3.895861128e-37
2.656935861e-37
1.814918058e-37
1.23829098e-37
8.442680002e-38
5.748416256e-38
3.913231087e-38
2.682717407e-38
1.780465642e-38
1.217816203e-38
8.310039253e-39
5.938631461e-39
3.628304828e-39
2.65036128e-39
1.742851437e-39
8.083060044e-40
4.122132701e-40
4.279946683e-40
4.137766327e-40
3.219791964e-40
0
1.280364064e-40
1.438396471e-40
1.487684222e-40
1.79931059e-41
1.084354968e-41
3.85211098e-41
1.500034291e-43
0
5.422419942e-41
1.913083259e-43
0
0
3.434262231e-44
0
2.35271815e-42
8.149653745e-42
1.905800804e-42
4.28818594e-44
8.9839835e-43
3.11434403e-42
1.378589805e-42
8.825656295e-43
7.155538411e-42
8.477410435e-44
0
2.048731088e-44
3.422820924e-42
9.984615164e-44
1.407312871e-42
6.327692504e-43
5.129308523e-42
4.551451899e-43
3.466767459e-42
7.863558909e-44
0
0
0
1.247269143e-44
4.256452183e-43
0
1.695107982e-42
2.0385863e-42
7.966149974e-43
1.423155269e-42
0
1.046945e-42
1.394801077e-43
4.344435031e-44
3.912644998e-42
4.101186558e-42
7.401726741e-42
1.958245439e-43
1.033782083e-41
6.993304778e-43
0
2.276378477e-42
0
5.025617731e-44
1.017788421e-41
1.937056698e-43
6.571858456e-45
9.783219743e-43
1.617182952e-42
0
1.239024192e-41
2.968578875e-42
2.225843929e-42
1.079038618e-43
6.952324469e-42
7.794565556e-42
0
1.543306277e-44
9.57769145e-44
1.140835755e-42
4.571434311e-42
9.669473204e-42
4.870119431e-42
2.078798763e-43
0
6.663548975e-42
5.09407961e-44
8.887270921e-44
6.827330915e-44
7.74429668e-42
0
6.022766835e-42
2.18204592e-42
1.533632496e-42
0
4.990181163e-43
1.355958772e-44
0
0
3.9230707e-43
2.362420127e-42
3.969658221e-42
0
1.214670831e-41
2.212979127e-42
2.310952645e-42
2.178940225e-42
1.792174783e-41
1.913472222e-42
0
1.716768097e-42
6.430761388e-43
1.992589369e-41
0
1.040388754e-41
1.162467753e-41
7.479794641e-42
5.391176496e-42
0
0
5.866102956e-42
8.588977335e-44
3.201528707e-42
0
7.518504451e-43
3.422689136e-44
1.520397203e-41
2.412472951e-43
0
0
5.195990848e-42
0
0
4.120443398e-42
2.867042127e-44
3.493624459e-45
6.292110827e-43
0
9.225553048e-43
2.607665674e-42
2.071509693e-44
3.379862e-42
1.839252132e-42
1.498490068e-42
2.753654708e-44
2.926358332e-43
0
0
6.229866517e-43
0
0
9.209982112e-43
1.417583055e-42
4.308662453e-42
1.188655088e-42
5.857273727e-42
3.542623178e-42
0
5.666108283e-45
3.063964024e-42
0
4.342218146e-44
0
0
2.48797187e-42
3.284887226e-44
4.267845546e-42
2.29635198e-42
0
7.456334673e-44
2.624768497e-44
3.477158049e-42
)
;

boundaryField
{
    inlet
    {
        type            fixedValue;
        value           uniform 0;
    }
    outlet
    {
        type            zeroGradient;
    }
    wall
    {
        type            empty;
    }
}


// ************************************************************************* //
