/*--------------------------------*- C++ -*----------------------------------*\
  =========                 |
  \\      /  F ield         | OpenFOAM: The Open Source CFD Toolbox
   \\    /   O peration     | Website:  https://openfoam.org
    \\  /    A nd           | Version:  7
     \\/     M anipulation  |
\*---------------------------------------------------------------------------*/
FoamFile
{
    version     2.0;
    format      ascii;
    class       volScalarField;
    location    "0.000558243009";
    object      NC3H7COCH3_0;
}
// * * * * * * * * * * * * * * * * * * * * * * * * * * * * * * * * * * * * * //

dimensions      [0 0 0 0 0 0 0];

internalField   nonuniform List<scalar> 
1500
(
4.029549904e-21
1.567009783e-20
3.220902612e-20
4.80445967e-20
5.961342778e-20
6.651595708e-20
7.001399723e-20
7.155679532e-20
7.215918983e-20
7.237023097e-20
7.243731445e-20
7.245684579e-20
7.246209636e-20
7.24634086e-20
7.246371529e-20
7.246378267e-20
7.246379664e-20
7.246379939e-20
7.24637999e-20
7.246379999e-20
7.246380001e-20
7.246380001e-20
7.246380001e-20
7.246380001e-20
7.246380001e-20
7.246380001e-20
7.246380001e-20
7.246380001e-20
7.246380001e-20
7.246380001e-20
7.246380001e-20
7.246380001e-20
7.246380001e-20
7.246380001e-20
7.246380001e-20
7.246380001e-20
7.246380001e-20
7.246380001e-20
7.246380001e-20
7.246380001e-20
7.246380001e-20
7.246380001e-20
7.246380001e-20
7.246380001e-20
7.246380001e-20
7.246380001e-20
7.246380001e-20
7.246380001e-20
7.246380001e-20
7.246380001e-20
7.246380001e-20
7.246380001e-20
7.246380001e-20
7.246380001e-20
7.246380001e-20
7.246380001e-20
7.246380001e-20
7.246380001e-20
7.246380001e-20
7.246380001e-20
7.246380001e-20
7.246380001e-20
7.246380001e-20
7.246380001e-20
7.246380001e-20
7.246380001e-20
7.246380001e-20
7.246380001e-20
7.246380001e-20
7.246380001e-20
7.246380001e-20
7.246380001e-20
7.246380001e-20
7.246380001e-20
7.246380001e-20
7.246380001e-20
7.246380001e-20
7.246380001e-20
7.246380001e-20
7.246380001e-20
7.246380001e-20
7.246380001e-20
7.246380001e-20
7.246380001e-20
7.246380001e-20
7.246380001e-20
7.246380001e-20
7.246380001e-20
7.246380001e-20
7.246380001e-20
7.246380001e-20
7.246380001e-20
7.246380001e-20
7.246380001e-20
7.246380001e-20
7.246380001e-20
7.246380001e-20
7.246380001e-20
7.246380001e-20
7.246380001e-20
7.246380001e-20
7.246380001e-20
7.246380001e-20
7.246380001e-20
7.246380001e-20
7.246380001e-20
7.246380001e-20
7.246380001e-20
7.246380001e-20
7.246380001e-20
7.246380001e-20
7.246380001e-20
7.246380001e-20
7.246380001e-20
7.246380001e-20
7.246380001e-20
7.246380001e-20
7.246380001e-20
7.246380001e-20
7.246380001e-20
7.246380001e-20
7.246380001e-20
7.246380001e-20
7.246380001e-20
7.246380001e-20
7.246380001e-20
7.246380001e-20
7.246380001e-20
7.246380001e-20
7.246380001e-20
7.246380001e-20
7.246380001e-20
7.246380001e-20
7.246380001e-20
7.246380001e-20
7.246380001e-20
7.246380001e-20
7.246380001e-20
7.246380001e-20
7.246380001e-20
7.246380001e-20
7.246380001e-20
7.246380001e-20
7.246380001e-20
7.246380001e-20
7.246380001e-20
7.246380001e-20
7.246380001e-20
7.246380001e-20
7.246380001e-20
7.246380001e-20
7.246380001e-20
7.246380001e-20
7.246380001e-20
7.246380001e-20
7.246380001e-20
7.246380001e-20
7.246380001e-20
7.246380001e-20
7.246380001e-20
7.246380001e-20
7.246380001e-20
7.246380001e-20
7.246380001e-20
7.246380001e-20
7.246380001e-20
7.246380001e-20
7.246380001e-20
7.246380001e-20
7.246380001e-20
7.246380001e-20
7.246380001e-20
7.246380001e-20
7.246380001e-20
7.246380001e-20
7.246380001e-20
7.246380001e-20
7.246380001e-20
7.246380001e-20
7.246380001e-20
7.246380001e-20
7.246380001e-20
7.246380001e-20
7.246380001e-20
7.246380001e-20
7.246380001e-20
7.246380001e-20
7.246380001e-20
7.246380001e-20
7.246380001e-20
7.246380001e-20
7.246380001e-20
7.246380001e-20
7.246380001e-20
7.246380001e-20
7.246380001e-20
7.246380001e-20
7.246380001e-20
7.246380001e-20
7.246380001e-20
7.246380001e-20
7.246380001e-20
7.246380001e-20
7.246380001e-20
7.246380001e-20
7.246380001e-20
7.246380001e-20
7.246380001e-20
7.246380001e-20
7.246380001e-20
7.246380001e-20
7.246380001e-20
7.246380001e-20
7.246380001e-20
7.246380001e-20
7.246380001e-20
7.246380001e-20
7.246380001e-20
7.246380001e-20
7.246380001e-20
7.246380001e-20
7.246380001e-20
7.246380001e-20
7.246380001e-20
7.246380001e-20
7.246380001e-20
7.246380001e-20
7.246380001e-20
7.246380001e-20
7.246380001e-20
7.246380001e-20
7.246380001e-20
7.246380001e-20
7.246380001e-20
7.246380002e-20
7.246380002e-20
7.246380002e-20
7.246380003e-20
7.246380005e-20
7.246380012e-20
7.246380037e-20
7.246380148e-20
7.246380629e-20
7.24638257e-20
7.246389781e-20
7.246414117e-20
7.246487672e-20
7.246682434e-20
7.247114137e-20
7.247817272e-20
7.247983912e-20
7.24804889e-20
7.248116633e-20
7.248187252e-20
7.24826084e-20
7.248337505e-20
7.248417375e-20
7.248500588e-20
7.248587292e-20
7.248677638e-20
7.248771787e-20
7.248869904e-20
7.248972162e-20
7.249078742e-20
7.249189834e-20
7.249305636e-20
7.249426355e-20
7.249552207e-20
7.24968342e-20
7.249820231e-20
7.249962889e-20
7.250111653e-20
7.250266798e-20
7.250428607e-20
7.25059738e-20
7.25077343e-20
7.250957086e-20
7.25114869e-20
7.251348604e-20
7.251557206e-20
7.251774892e-20
7.252002077e-20
7.252239197e-20
7.252486711e-20
7.252745099e-20
7.253014866e-20
7.253296539e-20
7.253590678e-20
7.253897865e-20
7.254218716e-20
7.254553877e-20
7.254904028e-20
7.255269882e-20
7.255652194e-20
7.256051755e-20
7.2564694e-20
7.256906007e-20
7.257362504e-20
7.257839866e-20
7.258339124e-20
7.258861365e-20
7.259407736e-20
7.259979449e-20
7.260577783e-20
7.261204093e-20
7.261859807e-20
7.26254644e-20
7.263265591e-20
7.264018956e-20
7.264808331e-20
7.265635618e-20
7.266502833e-20
7.267412116e-20
7.268365736e-20
7.269366102e-20
7.270415771e-20
7.271517462e-20
7.272674064e-20
7.273888647e-20
7.275164478e-20
7.276505032e-20
7.277914012e-20
7.279395356e-20
7.280953261e-20
7.282592201e-20
7.284316942e-20
7.286132568e-20
7.2880445e-20
7.290058521e-20
7.292180802e-20
7.29441793e-20
7.296776935e-20
7.299265323e-20
7.301891111e-20
7.304662859e-20
7.307589709e-20
7.310681428e-20
7.313948448e-20
7.317401914e-20
7.32105373e-20
7.324916612e-20
7.329004145e-20
7.333330836e-20
7.337912181e-20
7.342764725e-20
7.347906137e-20
7.353355275e-20
7.359132269e-20
7.365258599e-20
7.371757181e-20
7.378652456e-20
7.385970485e-20
7.393739047e-20
7.401987743e-20
7.410748107e-20
7.420053713e-20
7.429940302e-20
7.440445899e-20
7.451610948e-20
7.463478441e-20
7.476094061e-20
7.489506327e-20
7.503766743e-20
7.518929954e-20
7.535053908e-20
7.552200022e-20
7.57043335e-20
7.589822763e-20
7.610441128e-20
7.632365491e-20
7.65567727e-20
7.680462449e-20
7.706811769e-20
7.734820935e-20
7.764590817e-20
7.796227655e-20
7.82984327e-20
7.86555527e-20
7.903487261e-20
7.943769062e-20
7.986536911e-20
8.031933677e-20
8.080109067e-20
8.131219833e-20
8.185429972e-20
8.242910927e-20
8.303841779e-20
8.368409432e-20
8.436808797e-20
8.509242961e-20
8.585923352e-20
8.667069893e-20
8.752911142e-20
8.843684423e-20
8.939635944e-20
9.041020896e-20
9.148103543e-20
9.261157288e-20
9.380464728e-20
9.506317686e-20
9.639017222e-20
9.778873626e-20
9.926206389e-20
1.008134414e-19
1.024462459e-19
1.04163944e-19
1.059700907e-19
1.078683277e-19
1.098623817e-19
1.119560623e-19
1.141532593e-19
1.164579404e-19
1.188741478e-19
1.214059953e-19
1.240576644e-19
1.268334005e-19
1.297375086e-19
1.32774349e-19
1.359483324e-19
1.392639147e-19
1.427255919e-19
1.46337894e-19
1.501053796e-19
1.540326292e-19
1.581242392e-19
1.62384815e-19
1.668189643e-19
1.714312897e-19
1.762263818e-19
1.812088114e-19
1.863831222e-19
1.917538229e-19
1.973253796e-19
2.031022077e-19
2.090886639e-19
2.152890384e-19
2.21707547e-19
2.283483228e-19
2.352154085e-19
2.423127489e-19
2.496441826e-19
2.572134347e-19
2.650241098e-19
2.730796841e-19
2.813834991e-19
2.899387548e-19
2.98748503e-19
3.078156418e-19
3.171429095e-19
3.267328795e-19
3.365879558e-19
3.467103679e-19
3.571021677e-19
3.677652255e-19
3.787012276e-19
3.899116739e-19
4.013978763e-19
4.131609574e-19
4.252018507e-19
4.375213005e-19
4.50119863e-19
4.629979081e-19
4.761556219e-19
4.8959301e-19
5.033099014e-19
5.173059538e-19
5.315806588e-19
5.46133349e-19
5.609632049e-19
5.760692638e-19
5.914504289e-19
6.071054792e-19
6.230330812e-19
6.392318006e-19
6.557001157e-19
6.724364314e-19
6.894390945e-19
7.067064099e-19
7.242366578e-19
7.420281124e-19
7.600790614e-19
7.783878263e-19
7.96952785e-19
8.157723943e-19
8.348452145e-19
8.541699349e-19
8.737454009e-19
8.935706421e-19
9.136449017e-19
9.33967668e-19
9.545387063e-19
9.753580934e-19
9.964262525e-19
1.017743991e-18
1.039312537e-18
1.061133584e-18
1.083209327e-18
1.105542512e-18
1.128136477e-18
1.150995202e-18
1.174123357e-18
1.197526354e-18
1.221210399e-18
1.245182548e-18
1.269450765e-18
1.294023979e-18
1.318912147e-18
1.344126319e-18
1.369678701e-18
1.395582725e-18
1.42185312e-18
1.448505984e-18
1.475558866e-18
1.503030831e-18
1.530942566e-18
1.559316444e-18
1.588176602e-18
1.617549045e-18
1.647461731e-18
1.677944669e-18
1.709030017e-18
1.74075218e-18
1.773147911e-18
1.806256416e-18
1.840119458e-18
1.874781461e-18
1.910289628e-18
1.946694048e-18
1.984047802e-18
2.022407098e-18
2.061831384e-18
2.102383479e-18
2.144129692e-18
2.187139975e-18
2.231488043e-18
2.277251502e-18
2.324511988e-18
2.373355322e-18
2.42387165e-18
2.476155598e-18
2.530306423e-18
2.586428174e-18
2.644629854e-18
2.70502559e-18
2.767734805e-18
2.832882397e-18
2.900598928e-18
2.971020814e-18
3.044290524e-18
3.120556793e-18
3.199974835e-18
3.28270657e-18
3.368920864e-18
3.458793776e-18
3.552508819e-18
3.650257239e-18
3.752238301e-18
3.858659596e-18
3.96973737e-18
4.08569686e-18
4.206772665e-18
4.333209127e-18
4.465260748e-18
4.60319262e-18
4.747280901e-18
4.8978133e-18
5.055089619e-18
5.219422314e-18
5.391137102e-18
5.570573615e-18
5.758086095e-18
5.954044146e-18
6.158833546e-18
6.372857119e-18
6.596535689e-18
6.830309119e-18
7.074637445e-18
7.330002135e-18
7.59690749e-18
7.875882213e-18
8.167481192e-18
8.472287556e-18
8.790915051e-18
9.124010852e-18
9.47225892e-18
9.836384064e-18
1.021715692e-17
1.061540016e-17
1.103199622e-17
1.14678972e-17
1.192413748e-17
1.240184995e-17
1.290228711e-17
1.342684863e-17
1.397711739e-17
1.455490685e-17
1.516232359e-17
1.580184983e-17
1.64764528e-17
1.718972959e-17
1.794609949e-17
1.875105937e-17
1.96115232e-17
2.053627349e-17
2.153656182e-17
2.262690803e-17
2.382616389e-17
2.515892902e-17
2.665743591e-17
2.83640598e-17
3.033466031e-17
3.264303092e-17
3.538682346e-17
3.869543628e-17
4.274051696e-17
4.774994556e-17
5.402645089e-17
6.197239379e-17
7.212275823e-17
8.51890659e-17
1.02117827e-16
1.241683326e-16
1.530161812e-16
1.908910387e-16
2.407599361e-16
3.06571131e-16
3.935785084e-16
5.087730672e-16
6.614567652e-16
8.640055816e-16
1.132884026e-15
1.48999372e-15
1.964465716e-15
2.595042068e-15
3.433239641e-15
4.547552024e-15
6.029028596e-15
7.998679777e-15
1.061730283e-14
1.409851436e-14
1.872602876e-14
2.487655476e-14
3.305012101e-14
4.391021718e-14
5.833689265e-14
7.749694399e-14
1.029366148e-13
1.367039167e-13
1.815098728e-13
2.409408259e-13
3.1973763e-13
4.241622763e-13
5.624785766e-13
7.455812831e-13
9.87817872e-13
1.30805966e-12
1.731094532e-12
2.289432972e-12
3.025643093e-12
3.995359616e-12
5.271147158e-12
6.947440346e-12
9.146832708e-12
1.202804331e-11
1.579595419e-11
2.071418203e-11
2.712072171e-11
3.544727487e-11
4.624294716e-11
6.0203059e-11
7.8203856e-11
1.013439189e-10
1.309930489e-10
1.688493296e-10
2.170049417e-10
2.780211134e-10
3.550123452e-10
4.517397467e-10
5.727129878e-10
7.233000085e-10
9.098432806e-10
1.139781072e-09
1.421771842e-09
1.765819569e-09
2.18339742e-09
2.687566638e-09
3.29308673e-09
4.016511817e-09
4.876266116e-09
5.89268939e-09
7.088038146e-09
8.486425731e-09
1.011367598e-08
1.199705928e-08
1.416487333e-08
1.664582646e-08
1.946817398e-08
2.265598628e-08
2.62383813e-08
3.02171436e-08
3.464371874e-08
3.951701776e-08
4.483152576e-08
5.032361462e-08
5.602591653e-08
6.180641435e-08
6.749120662e-08
7.287949033e-08
7.777288653e-08
8.200932765e-08
8.54842139e-08
8.814491618e-08
8.998691796e-08
9.104326476e-08
9.14093621e-08
9.115838665e-08
9.042254086e-08
8.930954477e-08
8.789257485e-08
8.628171153e-08
8.450177307e-08
8.257508373e-08
8.051534723e-08
7.834056866e-08
7.606038523e-08
7.368474351e-08
7.122610105e-08
6.869898272e-08
6.611948493e-08
6.349292021e-08
6.086667521e-08
5.822918386e-08
5.563604457e-08
5.308568945e-08
5.059190183e-08
4.816565829e-08
4.581491422e-08
4.352273043e-08
4.128017628e-08
3.912446401e-08
3.706051869e-08
3.509060693e-08
3.321629311e-08
3.143833892e-08
2.975530933e-08
2.816405643e-08
2.666153237e-08
2.527003268e-08
2.395483918e-08
2.269871562e-08
2.151631349e-08
2.040230195e-08
1.935210734e-08
1.836171686e-08
1.742750756e-08
1.654667812e-08
1.571505367e-08
1.493017764e-08
1.418922605e-08
1.348954344e-08
1.282863384e-08
1.220415408e-08
1.161390693e-08
1.105583363e-08
1.052800601e-08
1.002861857e-08
9.55598049e-09
9.108508349e-09
8.684719092e-09
8.283223466e-09
7.902719862e-09
7.541988591e-09
7.199886535e-09
6.875342153e-09
6.567350822e-09
6.27497047e-09
5.997317495e-09
5.733562943e-09
5.48292894e-09
5.244685348e-09
5.018146646e-09
4.802669013e-09
4.59764761e-09
4.40251404e-09
4.216733979e-09
4.03980497e-09
3.871254365e-09
3.710637408e-09
3.557535445e-09
3.41155426e-09
3.272322525e-09
3.139490346e-09
3.012727921e-09
2.891724277e-09
2.776186098e-09
2.665836633e-09
2.560414667e-09
2.459673577e-09
2.363380431e-09
2.271315166e-09
2.183269803e-09
2.099047723e-09
2.01846299e-09
1.941339711e-09
1.867511443e-09
1.796820639e-09
1.729118123e-09
1.664262602e-09
1.602120213e-09
1.542564087e-09
1.485473955e-09
1.430735765e-09
1.37824133e-09
1.327887998e-09
1.279578339e-09
1.233219852e-09
1.188724691e-09
1.146009407e-09
1.104994705e-09
1.065605216e-09
1.027769284e-09
9.914187621e-10
9.564888238e-10
9.229177851e-10
8.906469356e-10
8.596203806e-10
8.297848918e-10
8.010897672e-10
7.734866984e-10
7.46929646e-10
7.213747221e-10
6.96780079e-10
6.73105805e-10
6.503138248e-10
6.283678072e-10
6.07233076e-10
5.868765278e-10
5.672665524e-10
5.483729591e-10
5.301669065e-10
5.126208355e-10
4.95708407e-10
4.79404442e-10
4.636848657e-10
4.485266539e-10
4.339077825e-10
4.198071801e-10
4.062046819e-10
3.930809876e-10
3.8041762e-10
3.68196887e-10
3.564018442e-10
3.450162607e-10
3.340245861e-10
3.234119188e-10
3.131639766e-10
3.032670682e-10
2.937080666e-10
2.844743832e-10
2.755539441e-10
2.669351664e-10
2.58606937e-10
2.505585909e-10
2.427798922e-10
2.352610145e-10
2.279925235e-10
2.209653594e-10
2.14170821e-10
2.076005498e-10
2.012465156e-10
1.95101002e-10
1.891565935e-10
1.83406162e-10
1.778428552e-10
1.724600847e-10
1.672515146e-10
1.622110518e-10
1.573328346e-10
1.526112244e-10
1.480407953e-10
1.436163261e-10
1.393327915e-10
1.351853544e-10
1.311693577e-10
1.272803175e-10
1.23513916e-10
1.198659945e-10
1.163325472e-10
1.129097152e-10
1.095937805e-10
1.063811603e-10
1.03268402e-10
1.002521776e-10
9.732927915e-11
9.449661393e-11
9.175119994e-11
8.909016164e-11
8.651072576e-11
8.401021742e-11
8.15860563e-11
7.923575303e-11
7.695690571e-11
7.474719656e-11
7.260438878e-11
7.052632343e-11
6.851091653e-11
6.655615622e-11
6.466010008e-11
6.282087252e-11
6.10366623e-11
5.930572016e-11
5.762635649e-11
5.599693918e-11
5.441589148e-11
5.288168995e-11
5.139286257e-11
4.994798684e-11
4.854568796e-11
4.718463716e-11
4.586354999e-11
4.458118475e-11
4.333634096e-11
4.212785789e-11
4.095461311e-11
3.98155212e-11
3.870953236e-11
3.763563121e-11
3.659283554e-11
3.558019519e-11
3.459679088e-11
3.364173316e-11
3.271416139e-11
3.181324267e-11
3.093817098e-11
3.008816615e-11
2.926247306e-11
2.846036073e-11
2.768112148e-11
2.692407019e-11
2.61885435e-11
2.547389904e-11
2.477951478e-11
2.410478832e-11
2.34491362e-11
2.281199329e-11
2.21928122e-11
2.159106262e-11
2.100623083e-11
2.043781908e-11
1.988534509e-11
1.934834155e-11
1.882635561e-11
1.83189484e-11
1.782569457e-11
1.734618188e-11
1.688001071e-11
1.642679371e-11
1.598615537e-11
1.555773162e-11
1.51411695e-11
1.473612678e-11
1.43422716e-11
1.395928215e-11
1.358684637e-11
1.322466159e-11
1.287243428e-11
1.252987969e-11
1.219672167e-11
1.18726923e-11
1.15575317e-11
1.125098771e-11
1.095281572e-11
1.066277837e-11
1.038064536e-11
1.010619321e-11
9.839205055e-12
9.579470438e-12
9.326785102e-12
9.080950808e-12
8.841775142e-12
8.609071337e-12
8.382658096e-12
8.162359426e-12
7.948004473e-12
7.739427365e-12
7.536467057e-12
7.338967188e-12
7.14677593e-12
6.959745859e-12
6.777733813e-12
6.600600767e-12
6.428211707e-12
6.260435505e-12
6.097144806e-12
5.938215914e-12
5.783528677e-12
5.632966385e-12
5.486415666e-12
5.343766385e-12
5.204911546e-12
5.069747201e-12
4.938172358e-12
4.810088892e-12
4.685401462e-12
4.564017424e-12
4.445846759e-12
4.330801986e-12
4.218798095e-12
4.109752469e-12
4.003584816e-12
3.900217101e-12
3.799573478e-12
3.701580226e-12
3.606165691e-12
3.513260219e-12
3.422796103e-12
3.334707524e-12
3.248930496e-12
3.165402815e-12
3.084064004e-12
3.004855265e-12
2.927719433e-12
2.852600922e-12
2.779445686e-12
2.708201174e-12
2.638816282e-12
2.571241318e-12
2.505427956e-12
2.441329203e-12
2.378899353e-12
2.318093958e-12
2.258869788e-12
2.201184796e-12
2.144998088e-12
2.090269885e-12
2.036961497e-12
1.985035288e-12
1.934454648e-12
1.885183964e-12
1.83718859e-12
1.790434825e-12
1.744889879e-12
1.700521853e-12
1.657299713e-12
1.615193263e-12
1.574173126e-12
1.534210717e-12
1.495278222e-12
1.45734858e-12
1.420395456e-12
1.384393225e-12
1.349316953e-12
1.315142372e-12
1.28184587e-12
1.249404464e-12
1.217795792e-12
1.186998087e-12
1.156990165e-12
1.127751409e-12
1.099261754e-12
1.071501667e-12
1.04445214e-12
1.018094669e-12
9.924112423e-13
9.673843296e-13
9.429968651e-13
9.192322366e-13
8.960742727e-13
8.735072312e-13
8.51515787e-13
8.300850208e-13
8.092004081e-13
7.888478086e-13
7.690134556e-13
7.496839458e-13
7.308462298e-13
7.124876019e-13
6.945956917e-13
6.771584541e-13
6.601641611e-13
6.43601393e-13
6.274590304e-13
6.117262457e-13
5.963924953e-13
5.814475125e-13
5.668812993e-13
5.526841197e-13
5.388464925e-13
5.253591846e-13
5.122132041e-13
4.99399794e-13
4.869104262e-13
4.747367947e-13
4.628708104e-13
4.51304595e-13
4.400304752e-13
4.290409775e-13
4.183288229e-13
4.078869217e-13
3.977083682e-13
3.877864363e-13
3.781145741e-13
3.686864002e-13
3.594956981e-13
3.505364128e-13
3.418026458e-13
3.332886515e-13
3.249888328e-13
3.168977374e-13
3.090100539e-13
3.01320608e-13
2.938243591e-13
2.865163966e-13
2.793919365e-13
2.724463183e-13
2.656750012e-13
2.590735618e-13
2.526376902e-13
2.463631876e-13
2.40245963e-13
2.342820306e-13
2.284675071e-13
2.227986088e-13
2.172716491e-13
2.118830361e-13
2.066292699e-13
2.015069403e-13
1.965127246e-13
1.916433849e-13
1.868957666e-13
1.822667955e-13
1.777534762e-13
1.733528896e-13
1.690621915e-13
1.648786103e-13
1.60799445e-13
1.568220637e-13
1.529439015e-13
1.491624591e-13
1.454753008e-13
1.418800528e-13
1.383744021e-13
1.349560943e-13
1.316229325e-13
1.283727758e-13
1.252035376e-13
1.221131843e-13
1.190997341e-13
1.161612555e-13
1.132958661e-13
1.105017312e-13
1.077770626e-13
1.051201177e-13
1.025291978e-13
1.000026475e-13
9.753885321e-14
9.513624223e-14
9.27932817e-14
9.050847755e-14
8.828037354e-14
8.610755024e-14
8.398862411e-14
8.192224659e-14
7.990710321e-14
7.794191268e-14
7.602542608e-14
7.4156426e-14
7.233372577e-14
7.055616864e-14
6.882262704e-14
6.71320018e-14
6.548322149e-14
6.387524162e-14
6.230704403e-14
6.077763619e-14
5.928605053e-14
5.783134382e-14
5.641259656e-14
5.502891233e-14
5.367941727e-14
5.236325942e-14
5.107960823e-14
4.982765399e-14
4.860660728e-14
4.741569848e-14
4.625417724e-14
4.5121312e-14
4.401638951e-14
4.293871433e-14
4.188760844e-14
4.086241071e-14
3.986247654e-14
3.888717736e-14
3.79359003e-14
3.70080477e-14
3.610303678e-14
3.522029921e-14
3.435928075e-14
3.35194409e-14
3.270025249e-14
3.190120137e-14
3.112178605e-14
3.036151734e-14
2.961991807e-14
2.88965227e-14
2.819087705e-14
2.750253796e-14
2.6831073e-14
2.617606012e-14
2.553708743e-14
2.491375283e-14
2.430566375e-14
2.371243687e-14
2.31336978e-14
2.256908083e-14
2.201822863e-14
2.148079195e-14
2.095642938e-14
2.044480704e-14
1.994559828e-14
1.945848341e-14
1.898314943e-14
1.85192897e-14
1.806660364e-14
1.762479648e-14
1.719357887e-14
1.67726666e-14
1.636178026e-14
1.596064491e-14
1.556898969e-14
1.518654747e-14
1.481305446e-14
1.444824979e-14
1.40918751e-14
1.374367407e-14
1.340339195e-14
1.307077513e-14
1.274557056e-14
1.242752531e-14
1.211638601e-14
1.18118984e-14
1.151380681e-14
1.122185364e-14
1.093577879e-14
1.065531873e-14
1.038020502e-14
1.011016154e-14
9.844899129e-15
9.584105878e-15
9.327429352e-15
7.268534904e-15
5.181586484e-15
3.688916716e-15
2.622960771e-15
1.862620679e-15
1.320938246e-15
9.355160097e-16
6.616317921e-16
4.672666294e-16
3.295218329e-16
2.32040317e-16
1.63151994e-16
1.145412812e-16
8.029060863e-17
5.619457304e-17
3.926868383e-17
2.739793416e-17
1.908568741e-17
1.327447304e-17
9.218265967e-18
6.391587739e-18
4.42489605e-18
3.058733226e-18
2.111232005e-18
1.455123798e-18
1.001496775e-18
6.88339869e-19
4.724766266e-19
3.238948446e-19
2.217677216e-19
1.516663808e-19
1.036107674e-19
7.070896793e-20
4.820910783e-20
3.283982906e-20
2.235235042e-20
1.520303117e-20
1.033371989e-20
7.02001329e-21
4.766606676e-21
3.235236936e-21
2.195144589e-21
1.489068328e-21
1.009935878e-21
6.849086261e-22
4.644741781e-22
3.149990486e-22
2.136496429e-22
1.449320901e-22
9.833723495e-23
6.673923779e-23
4.53074955e-23
3.076783397e-23
2.090118821e-23
1.420357939e-23
9.65560173e-24
6.566195726e-24
4.466791141e-24
3.039592746e-24
2.068996782e-24
1.408678055e-24
9.592907329e-25
6.53357014e-25
4.450247312e-25
3.031229203e-25
2.064517485e-25
1.4058663e-25
9.570886115e-26
6.513230259e-26
4.43023708e-26
3.011552895e-26
2.045646016e-26
1.388312359e-26
9.412343777e-27
6.373770516e-27
4.310368667e-27
2.910585818e-27
1.962097272e-27
1.320257659e-27
8.865777998e-28
5.940395357e-28
3.970756658e-28
2.64733511e-28
1.760111653e-28
1.166770117e-28
7.710152243e-29
5.078007057e-29
3.332716137e-29
2.179227261e-29
1.419493941e-29
9.209219084e-30
5.949852001e-30
3.827582329e-30
2.45145866e-30
1.563000736e-30
9.919463081e-31
6.265831644e-31
3.939180826e-31
2.464637459e-31
1.534658922e-31
9.510047714e-32
5.865085194e-32
3.600009332e-32
2.199353141e-32
1.337455008e-32
8.096405392e-33
4.8794799e-33
2.927950424e-33
1.749452776e-33
1.040937093e-33
6.168207525e-34
3.640191201e-34
2.139566509e-34
1.252431603e-34
7.300989763e-35
4.238020601e-35
2.449248818e-35
1.408988497e-35
8.066510986e-36
4.594649302e-36
2.603045598e-36
1.466372794e-36
8.211380026e-37
4.569762122e-37
2.527083907e-37
1.388767559e-37
7.588134778e-38
4.127439797e-38
2.240950428e-38
1.220916371e-38
6.740488066e-39
3.834459935e-39
2.3043844e-39
1.506459324e-39
1.094485827e-39
8.840078952e-40
7.776830437e-40
7.24646379e-40
6.985877731e-40
6.860386338e-40
6.801763885e-40
6.77581508e-40
6.765581991e-40
6.762743621e-40
6.763260645e-40
6.765194869e-40
6.76762979e-40
6.77014205e-40
6.772545168e-40
6.774766208e-40
6.776786613e-40
6.778613655e-40
6.780266417e-40
6.781768662e-40
6.783145028e-40
6.784418905e-40
6.785611232e-40
6.78673986e-40
6.787819307e-40
6.788860785e-40
6.789872435e-40
6.790859698e-40
6.79182577e-40
6.792772087e-40
6.793698801e-40
6.794605209e-40
6.795490118e-40
6.79635212e-40
6.797189787e-40
6.798001768e-40
6.798786829e-40
6.799543815e-40
6.800271588e-40
6.800968924e-40
6.801634426e-40
6.802266434e-40
6.80286297e-40
6.803421711e-40
6.803940009e-40
6.804414944e-40
6.80484342e-40
6.805222283e-40
6.805548472e-40
6.805819171e-40
6.806031969e-40
6.806185009e-40
6.806277125e-40
6.806307943e-40
6.806277969e-40
6.806188634e-40
6.806042306e-40
6.805842281e-40
6.805592727e-40
6.805298624e-40
6.804965661e-40
6.804600132e-40
6.804208815e-40
6.803798839e-40
6.80337756e-40
6.802952424e-40
6.802530839e-40
6.802120061e-40
6.801727073e-40
6.801358486e-40
6.801020443e-40
6.800718543e-40
6.800457766e-40
6.800242425e-40
6.800076123e-40
6.799961721e-40
6.799901332e-40
6.799896318e-40
6.799947305e-40
6.800054209e-40
6.800216273e-40
6.800432118e-40
6.800699796e-40
6.801016858e-40
6.801380413e-40
6.801787208e-40
6.802233692e-40
6.802716091e-40
6.803230471e-40
6.803772806e-40
6.804339034e-40
6.804925108e-40
6.805527048e-40
6.806140976e-40
6.806763151e-40
6.807389998e-40
6.80801813e-40
6.808644363e-40
6.809265732e-40
6.809879498e-40
6.810483156e-40
6.811074438e-40
6.811651315e-40
6.812212001e-40
6.812754946e-40
6.813278843e-40
6.813782617e-40
6.814265428e-40
6.81472666e-40
6.81516592e-40
6.81558302e-40
6.815977957e-40
6.816350805e-40
6.816701187e-40
6.817024963e-40
6.817292069e-40
)
;

boundaryField
{
    inlet
    {
        type            fixedValue;
        value           uniform 0;
    }
    outlet
    {
        type            zeroGradient;
    }
    wall
    {
        type            empty;
    }
}


// ************************************************************************* //
