/*--------------------------------*- C++ -*----------------------------------*\
  =========                 |
  \\      /  F ield         | OpenFOAM: The Open Source CFD Toolbox
   \\    /   O peration     | Website:  https://openfoam.org
    \\  /    A nd           | Version:  7
     \\/     M anipulation  |
\*---------------------------------------------------------------------------*/
FoamFile
{
    version     2.0;
    format      ascii;
    class       volScalarField;
    location    "0.000558243009";
    object      NC3H7_0;
}
// * * * * * * * * * * * * * * * * * * * * * * * * * * * * * * * * * * * * * //

dimensions      [0 0 0 0 0 0 0];

internalField   nonuniform List<scalar> 
1500
(
7.307100873e-29
8.303385829e-29
8.960941431e-29
9.566003019e-29
1.000117288e-28
1.027736285e-28
1.04335401e-28
1.051099016e-28
1.05447283e-28
1.055835533e-28
1.056445034e-28
1.05683599e-28
1.057182874e-28
1.057516911e-28
1.057826759e-28
1.058097415e-28
1.058321742e-28
1.058500838e-28
1.058640702e-28
1.058748688e-28
1.058831128e-28
1.058892415e-28
1.058935211e-28
1.058961228e-28
1.058972086e-28
1.058969901e-28
1.058957485e-28
1.058938193e-28
1.058915577e-28
1.058892977e-28
1.05887319e-28
1.058858283e-28
1.058849551e-28
1.058847588e-28
1.058852432e-28
1.058863711e-28
1.058880779e-28
1.058902826e-28
1.058928945e-28
1.058958177e-28
1.058989543e-28
1.059022077e-28
1.059054862e-28
1.059087071e-28
1.059118007e-28
1.059147139e-28
1.059174117e-28
1.059198775e-28
1.059221108e-28
1.059241246e-28
1.059259409e-28
1.059275866e-28
1.05929089e-28
1.05930473e-28
1.059317578e-28
1.05932956e-28
1.059340728e-28
1.059351057e-28
1.059360458e-28
1.059368788e-28
1.059375863e-28
1.059381471e-28
1.05938539e-28
1.059387401e-28
1.0593873e-28
1.059384913e-28
1.059380108e-28
1.059372807e-28
1.059362993e-28
1.059350717e-28
1.059336103e-28
1.059319351e-28
1.05930073e-28
1.059280575e-28
1.059259279e-28
1.05923728e-28
1.05921505e-28
1.059193082e-28
1.059171871e-28
1.059151903e-28
1.059133644e-28
1.059117521e-28
1.059103919e-28
1.059093167e-28
1.059085532e-28
1.059081216e-28
1.059080352e-28
1.059083002e-28
1.059089161e-28
1.059098755e-28
1.059111645e-28
1.059127632e-28
1.059146459e-28
1.059167822e-28
1.059191372e-28
1.059216722e-28
1.059243465e-28
1.059271172e-28
1.059299411e-28
1.059327754e-28
1.059355791e-28
1.059383137e-28
1.059409444e-28
1.059434412e-28
1.059457794e-28
1.059479403e-28
1.059499113e-28
1.059516863e-28
1.059532653e-28
1.059546537e-28
1.059558619e-28
1.059569043e-28
1.059577982e-28
1.059585626e-28
1.059592172e-28
1.059597814e-28
1.05960273e-28
1.05960708e-28
1.059610995e-28
1.059614576e-28
1.059617895e-28
1.059620995e-28
1.059623891e-28
1.05962658e-28
1.059629039e-28
1.059631238e-28
1.059633142e-28
1.059634716e-28
1.059635927e-28
1.05963675e-28
1.059637168e-28
1.05963717e-28
1.059636749e-28
1.059635903e-28
1.059634628e-28
1.059632916e-28
1.059630754e-28
1.059628119e-28
1.059624977e-28
1.059621283e-28
1.059616981e-28
1.059612008e-28
1.059606292e-28
1.059599762e-28
1.059592346e-28
1.059583983e-28
1.059574619e-28
1.05956422e-28
1.05955277e-28
1.059540277e-28
1.059526772e-28
1.059512312e-28
1.05949698e-28
1.059480881e-28
1.059464142e-28
1.059446907e-28
1.059429335e-28
1.059411593e-28
1.059393855e-28
1.059376297e-28
1.059359093e-28
1.059342416e-28
1.059326429e-28
1.05931129e-28
1.059297151e-28
1.059284155e-28
1.059272438e-28
1.059262131e-28
1.059253359e-28
1.059246243e-28
1.059240898e-28
1.059237434e-28
1.059235952e-28
1.059236543e-28
1.059239284e-28
1.059244237e-28
1.059251436e-28
1.059260892e-28
1.059272582e-28
1.059286442e-28
1.059302371e-28
1.059320219e-28
1.059339786e-28
1.059360824e-28
1.059383032e-28
1.059406062e-28
1.059429516e-28
1.05945296e-28
1.059475923e-28
1.059497916e-28
1.059518438e-28
1.059536995e-28
1.059553118e-28
1.059566378e-28
1.059576404e-28
1.059582904e-28
1.05958567e-28
1.059584597e-28
1.059579679e-28
1.059571008e-28
1.059558768e-28
1.05954322e-28
1.059524677e-28
1.059503491e-28
1.059480026e-28
1.059454641e-28
1.05942768e-28
1.059399464e-28
1.059370296e-28
1.059340475e-28
1.059310309e-28
1.05928014e-28
1.05925036e-28
1.05922142e-28
1.059193827e-28
1.059168119e-28
1.059144821e-28
1.059124373e-28
1.059107045e-28
1.059092831e-28
1.059081352e-28
1.059071756e-28
1.059062657e-28
1.059052114e-28
1.059037663e-28
1.059016427e-28
1.058985291e-28
1.058941151e-28
1.05888122e-28
1.058803372e-28
1.058706489e-28
1.058590776e-28
1.058458002e-28
1.058311626e-28
1.058156764e-28
1.057999978e-28
1.05784887e-28
1.05771147e-28
1.057595474e-28
1.057507352e-28
1.057451419e-28
1.057428981e-28
1.057437762e-28
1.057471994e-28
1.057523991e-28
1.057588607e-28
1.057672217e-28
1.057804524e-28
1.058038244e-28
1.058389392e-28
1.058520464e-28
1.05855997e-28
1.058599803e-28
1.058640416e-28
1.058682119e-28
1.058725144e-28
1.058769678e-28
1.058815879e-28
1.058863886e-28
1.058913827e-28
1.058965825e-28
1.059020001e-28
1.059076475e-28
1.059135372e-28
1.059196818e-28
1.059260945e-28
1.059327892e-28
1.059397802e-28
1.059470827e-28
1.059547125e-28
1.059626862e-28
1.059710215e-28
1.059797365e-28
1.059888508e-28
1.059983846e-28
1.060083592e-28
1.060187972e-28
1.060297223e-28
1.060411593e-28
1.060531346e-28
1.060656757e-28
1.060788116e-28
1.060925732e-28
1.061069927e-28
1.061221041e-28
1.061379435e-28
1.061545486e-28
1.061719594e-28
1.061902182e-28
1.062093694e-28
1.062294602e-28
1.062505402e-28
1.06272662e-28
1.062958809e-28
1.063202559e-28
1.063458489e-28
1.063727257e-28
1.064009558e-28
1.06430613e-28
1.064617751e-28
1.064945249e-28
1.0652895e-28
1.065651433e-28
1.066032034e-28
1.066432346e-28
1.066853481e-28
1.067296614e-28
1.067762996e-28
1.068253955e-28
1.068770902e-28
1.069315335e-28
1.069888847e-28
1.070493133e-28
1.071129991e-28
1.071801338e-28
1.072509211e-28
1.073255775e-28
1.074043337e-28
1.07487435e-28
1.075751423e-28
1.076677337e-28
1.077655046e-28
1.0786877e-28
1.079778649e-28
1.080931458e-28
1.082149923e-28
1.083438084e-28
1.084800243e-28
1.086240973e-28
1.087765147e-28
1.089377946e-28
1.091084883e-28
1.092891823e-28
1.094805005e-28
1.096831061e-28
1.098977045e-28
1.101250454e-28
1.103659255e-28
1.106211916e-28
1.108917427e-28
1.111785339e-28
1.114825788e-28
1.118049534e-28
1.121467991e-28
1.125093266e-28
1.128938194e-28
1.133016377e-28
1.137342226e-28
1.141931005e-28
1.146798868e-28
1.15196291e-28
1.157441212e-28
1.163252891e-28
1.169418144e-28
1.175958309e-28
1.18289591e-28
1.190254717e-28
1.198059796e-28
1.206337576e-28
1.215115898e-28
1.224424082e-28
1.234292988e-28
1.244755075e-28
1.255844468e-28
1.267597026e-28
1.280050401e-28
1.293244112e-28
1.307219607e-28
1.322020337e-28
1.337691819e-28
1.354281709e-28
1.371839869e-28
1.390418438e-28
1.410071901e-28
1.430857155e-28
1.452833578e-28
1.4760631e-28
1.500610264e-28
1.526542292e-28
1.553929152e-28
1.582843614e-28
1.613361315e-28
1.645560811e-28
1.679523637e-28
1.715334356e-28
1.753080606e-28
1.792853151e-28
1.834745917e-28
1.878856032e-28
1.92528386e-28
1.974133028e-28
2.025510453e-28
2.079526356e-28
2.136294281e-28
2.195931096e-28
2.258557002e-28
2.324295521e-28
2.39327349e-28
2.465621039e-28
2.541471569e-28
2.620961719e-28
2.704231325e-28
2.791423373e-28
2.882683946e-28
2.978162157e-28
3.078010084e-28
3.182382684e-28
3.291437712e-28
3.405335623e-28
3.524239469e-28
3.648314787e-28
3.777729484e-28
3.912653702e-28
4.053259691e-28
4.199721662e-28
4.352215639e-28
4.510919305e-28
4.676011833e-28
4.847673726e-28
5.026086631e-28
5.21143317e-28
5.403896749e-28
5.603661369e-28
5.810911437e-28
6.025831569e-28
6.248606395e-28
6.479420358e-28
6.718457521e-28
6.965901362e-28
7.221934589e-28
7.486738936e-28
7.760494982e-28
8.043381968e-28
8.335577612e-28
8.63725795e-28
8.948597169e-28
9.26976746e-28
9.600938883e-28
9.942279241e-28
1.029395397e-27
1.065612607e-27
1.102895598e-27
1.141260161e-27
1.180721824e-27
1.221295855e-27
1.262997266e-27
1.305840815e-27
1.349841019e-27
1.395012161e-27
1.441368311e-27
1.488923342e-27
1.537690958e-27
1.587684719e-27
1.638918074e-27
1.691404403e-27
1.745157059e-27
1.800189416e-27
1.856514929e-27
1.91414719e-27
1.973100003e-27
2.033387456e-27
2.095024007e-27
2.158024573e-27
2.222404634e-27
2.288180338e-27
2.35536862e-27
2.423987332e-27
2.494055378e-27
2.565592865e-27
2.638621261e-27
2.71316357e-27
2.78924451e-27
2.866890719e-27
2.946130956e-27
3.026996332e-27
3.109520548e-27
3.193740147e-27
3.279694788e-27
3.367427533e-27
3.456985151e-27
3.548418443e-27
3.641782582e-27
3.737137479e-27
3.834548163e-27
3.934085187e-27
4.035825053e-27
4.139850665e-27
4.246251805e-27
4.355125626e-27
4.466577186e-27
4.580719997e-27
4.69767661e-27
4.817579225e-27
4.940570332e-27
5.066803391e-27
5.196443535e-27
5.329668314e-27
5.466668478e-27
5.607648789e-27
5.752828882e-27
5.902444162e-27
6.056746749e-27
6.216006467e-27
6.380511889e-27
6.550571431e-27
6.726514519e-27
6.908692814e-27
7.09748151e-27
7.293280722e-27
7.496516958e-27
7.707644755e-27
7.927148653e-27
8.155545807e-27
8.393387551e-27
8.641248376e-27
8.899740383e-27
9.169514718e-27
9.451254944e-27
9.74569037e-27
1.005359526e-26
1.037578965e-26
1.071314197e-26
1.106657215e-26
1.143705475e-26
1.182562221e-26
1.223336737e-26
1.266144599e-26
1.311108277e-26
1.358357967e-26
1.40802955e-26
1.460267295e-26
1.515224147e-26
1.573062039e-26
1.633950703e-26
1.698068355e-26
1.765603404e-26
1.836755059e-26
1.911733865e-26
1.990762329e-26
2.074075653e-26
2.161922551e-26
2.254566164e-26
2.352285087e-26
2.455374538e-26
2.564147683e-26
2.678937177e-26
2.800096962e-26
2.928004376e-26
3.063062679e-26
3.20570408e-26
3.356393418e-26
3.515632666e-26
3.683966495e-26
3.861989194e-26
4.05035333e-26
4.249780647e-26
4.461075862e-26
4.685144177e-26
4.923013618e-26
5.175863593e-26
5.445061505e-26
5.732209784e-26
6.039206424e-26
6.368322994e-26
6.722305299e-26
7.104503402e-26
7.519039679e-26
7.971026207e-26
8.466846087e-26
9.014517673e-26
9.624166304e-26
1.030863544e-25
1.108427854e-25
1.19719854e-25
1.299851244e-25
1.419820727e-25
1.561524443e-25
1.730652421e-25
1.934543122e-25
2.182670803e-25
2.487277465e-25
2.864192335e-25
3.333894498e-25
3.922890884e-25
4.665503177e-25
5.606185019e-25
6.802526889e-25
8.329152729e-25
1.028277298e-24
1.278873722e-24
1.600953143e-24
2.015579711e-24
2.550062064e-24
3.239806363e-24
4.130719321e-24
5.282324499e-24
6.771803642e-24
8.699237767e-24
1.119440431e-23
1.442559262e-23
1.861103746e-23
2.403374879e-23
3.106074735e-23
4.016801682e-23
5.197287316e-23
6.727595965e-23
8.711573459e-23
1.128391754e-22
1.461935361e-22
1.894454436e-22
2.455355009e-22
3.182790197e-22
4.126266962e-22
5.350032076e-22
6.937471308e-22
8.996826695e-22
1.16686292e-21
1.513536496e-21
1.963405154e-21
2.547260771e-21
3.305117222e-21
4.288988386e-21
5.56651049e-21
7.225668866e-21
9.380970936e-21
1.218151532e-20
1.582155037e-20
2.055430593e-20
2.671013647e-20
3.472035317e-20
4.514857883e-20
5.873207285e-20
7.643630359e-20
9.952717109e-20
1.296668185e-19
1.690410737e-19
2.205294583e-19
2.879327098e-19
3.762783454e-19
4.922326136e-19
6.446582029e-19
8.453727163e-19
1.110185267e-18
1.4603207e-18
1.924387563e-18
2.541113975e-18
3.363175725e-18
4.462589372e-18
5.938365063e-18
7.927447994e-18
1.06204849e-17
1.428472837e-17
1.929758917e-17
2.619620762e-17
3.575132965e-17
4.907837283e-17
6.780588175e-17
9.433328939e-17
1.322288119e-16
1.868490487e-16
2.66312215e-16
3.830400252e-16
5.562214095e-16
8.157828561e-16
1.208841758e-15
1.810287413e-15
2.740286378e-15
4.193517102e-15
6.488481701e-15
1.015157415e-14
1.606205227e-14
2.570512254e-14
4.16195632e-14
6.820030063e-14
1.13157634e-13
1.90207318e-13
3.240954116e-13
5.60096344e-13
9.821470204e-13
1.747738639e-12
3.155411677e-12
5.775720268e-12
1.070563783e-11
2.006253204e-11
3.794156378e-11
7.22654002e-11
1.383414102e-10
2.656599619e-10
5.107825749e-10
9.815299454e-10
1.88182058e-09
3.593570673e-09
6.823692871e-09
1.286259476e-08
2.402810287e-08
4.44074689e-08
8.10602086e-08
1.458681993e-07
2.585157278e-07
4.499119015e-07
7.70093509e-07
1.292512214e-06
2.123210632e-06
3.372601176e-06
5.214795614e-06
7.803799531e-06
1.119424169e-05
1.51412722e-05
1.88797624e-05
2.126172986e-05
2.159302815e-05
2.016292081e-05
1.779455981e-05
1.523012886e-05
1.286551492e-05
1.092433769e-05
9.331823604e-06
7.988442609e-06
6.786592219e-06
5.696297492e-06
4.681130344e-06
3.748911048e-06
2.9263271e-06
2.225912574e-06
1.651967529e-06
1.200421823e-06
8.585391858e-07
6.082259791e-07
4.287731265e-07
3.012875672e-07
2.116452254e-07
1.482546912e-07
1.039236216e-07
7.279410603e-08
5.097021662e-08
3.570100947e-08
2.503817754e-08
1.755702309e-08
1.229046261e-08
8.616390096e-09
6.051525432e-09
4.25832171e-09
3.002803125e-09
2.121337169e-09
1.500751369e-09
1.062176474e-09
7.536416068e-10
5.3870889e-10
3.862248617e-10
2.769276459e-10
1.991872301e-10
1.43691182e-10
1.039379281e-10
7.537215403e-11
5.478730762e-11
3.992202391e-11
2.915319172e-11
2.133824074e-11
1.565500865e-11
1.1513623e-11
8.489787458e-12
6.277589962e-12
4.655990503e-12
3.464945489e-12
2.588348776e-12
1.941811525e-12
1.463887297e-12
1.109757035e-12
8.466745727e-13
6.506752383e-13
5.041926811e-13
3.943301226e-13
3.116041142e-13
2.490301105e-13
2.014557702e-13
1.650741125e-13
1.370674753e-13
1.153467493e-13
9.836012429e-14
8.495262208e-14
7.426278957e-14
6.564661942e-14
5.862144699e-14
5.282452265e-14
4.798237907e-14
4.388814917e-14
4.038474715e-14
3.735237855e-14
3.469925072e-14
3.235465235e-14
3.026378898e-14
2.838392176e-14
2.66814749e-14
2.512986411e-14
2.370786257e-14
2.239836822e-14
2.11874713e-14
2.006374679e-14
1.901771588e-14
1.804143448e-14
1.712817761e-14
1.627219631e-14
1.546852945e-14
1.471285741e-14
1.400138754e-14
1.333076405e-14
1.269799668e-14
1.210040373e-14
1.153556641e-14
1.10012918e-14
1.049558266e-14
1.001661263e-14
9.562705641e-15
9.132318685e-15
8.724027334e-15
8.336513399e-15
7.968554369e-15
7.619014302e-15
7.286835898e-15
6.971033566e-15
6.67068732e-15
6.384937362e-15
6.112979266e-15
5.85405966e-15
5.607472346e-15
5.372554791e-15
5.148684956e-15
4.935278401e-15
4.731785649e-15
4.537689779e-15
4.352504208e-15
4.175770666e-15
4.007057317e-15
3.845957038e-15
3.692085821e-15
3.545081297e-15
3.404601368e-15
3.270322939e-15
3.141940734e-15
3.019166207e-15
2.901726516e-15
2.789363577e-15
2.681833173e-15
2.578904131e-15
2.480357551e-15
2.385986082e-15
2.295593249e-15
2.208992824e-15
2.126008234e-15
2.046472011e-15
1.970225272e-15
1.897117232e-15
1.827004754e-15
1.759751917e-15
1.695229621e-15
1.633315202e-15
1.573892087e-15
1.516849457e-15
1.462081934e-15
1.409489291e-15
1.358976172e-15
1.310451833e-15
1.263829896e-15
1.21902812e-15
1.175968183e-15
1.134575474e-15
1.094778905e-15
1.056510724e-15
1.019706347e-15
9.843041902e-16
9.502455239e-16
9.17474322e-16
8.859371277e-16
8.555829244e-16
8.26363013e-16
7.98230897e-16
7.711421732e-16
7.450544283e-16
7.199271414e-16
6.957215914e-16
6.724007698e-16
6.499292973e-16
6.282733455e-16
6.074005629e-16
5.872800037e-16
5.678820613e-16
5.491784052e-16
5.311419203e-16
5.137466502e-16
4.969677433e-16
4.807814009e-16
4.651648289e-16
4.500961913e-16
4.355545663e-16
4.215199043e-16
4.079729885e-16
3.94895397e-16
3.822694669e-16
3.700782603e-16
3.583055317e-16
3.469356972e-16
3.359538051e-16
3.253455082e-16
3.150970367e-16
3.051951732e-16
2.956272285e-16
2.863810188e-16
2.774448433e-16
2.688074639e-16
2.60458085e-16
2.523863344e-16
2.445822458e-16
2.370362409e-16
2.297391132e-16
2.226820127e-16
2.158564303e-16
2.092541838e-16
2.028674044e-16
1.966885235e-16
1.907102601e-16
1.849256094e-16
1.793278312e-16
1.739104388e-16
1.68667189e-16
1.635920723e-16
1.586793029e-16
1.539233102e-16
1.493187298e-16
1.448603955e-16
1.405433311e-16
1.36362743e-16
1.323140131e-16
1.283926914e-16
1.245944899e-16
1.209152758e-16
1.173510657e-16
1.138980196e-16
1.105524356e-16
1.073107442e-16
1.041695033e-16
1.011253934e-16
9.817521282e-17
9.531587308e-17
9.25443948e-17
8.985790339e-17
8.725362513e-17
8.472888335e-17
8.228109478e-17
7.990776603e-17
7.760649024e-17
7.537494381e-17
7.321088336e-17
7.111214271e-17
6.907663006e-17
6.710232517e-17
6.518727684e-17
6.332960029e-17
6.152747476e-17
5.977914117e-17
5.80828999e-17
5.643710862e-17
5.48401802e-17
5.329058074e-17
5.178682766e-17
5.032748786e-17
4.891117594e-17
4.753655249e-17
4.620232249e-17
4.490723371e-17
4.36500752e-17
4.242967584e-17
4.124490294e-17
4.009466087e-17
3.897788981e-17
3.789356446e-17
3.684069283e-17
3.581831515e-17
3.482550267e-17
3.386135664e-17
3.292500728e-17
3.201561274e-17
3.11323582e-17
3.027445491e-17
2.944113929e-17
2.863167211e-17
2.784533766e-17
2.708144291e-17
2.633931679e-17
2.561830944e-17
2.491779148e-17
2.423715333e-17
2.357580458e-17
2.293317328e-17
2.230870542e-17
2.170186423e-17
2.111212969e-17
2.053899795e-17
1.998198077e-17
1.944060506e-17
1.891441233e-17
1.840295824e-17
1.790581213e-17
1.742255658e-17
1.695278696e-17
1.649611105e-17
1.605214859e-17
1.562053094e-17
1.520090068e-17
1.479291124e-17
1.439622659e-17
1.401052084e-17
1.363547799e-17
1.327079154e-17
1.291616425e-17
1.257130781e-17
1.223594257e-17
1.190979724e-17
1.159260867e-17
1.128412156e-17
1.098408822e-17
1.069226834e-17
1.040842875e-17
1.013234319e-17
9.863792121e-18
9.602562476e-18
9.348447492e-18
9.101246497e-18
8.860764728e-18
8.626813146e-18
8.399208255e-18
8.177771941e-18
7.962331297e-18
7.752718466e-18
7.548770489e-18
7.350329152e-18
7.157240839e-18
6.969356399e-18
6.786531001e-18
6.608624012e-18
6.43549886e-18
6.267022919e-18
6.103067385e-18
5.943507163e-18
5.788220753e-18
5.637090145e-18
5.490000711e-18
5.346841104e-18
5.207503164e-18
5.071881815e-18
4.93987498e-18
4.81138349e-18
4.686310994e-18
4.564563878e-18
4.446051187e-18
4.330684538e-18
4.218378053e-18
4.109048279e-18
4.002614119e-18
3.898996762e-18
3.798119616e-18
3.699908243e-18
3.604290296e-18
3.511195457e-18
3.42055538e-18
3.33230363e-18
3.24637563e-18
3.162708607e-18
3.081241537e-18
3.001915098e-18
2.924671617e-18
2.849455027e-18
2.776210813e-18
2.704885977e-18
2.635428986e-18
2.567789735e-18
2.501919503e-18
2.437770914e-18
2.375297901e-18
2.314455665e-18
2.255200639e-18
2.197490458e-18
2.141283916e-18
2.086540942e-18
2.033222561e-18
1.981290866e-18
1.930708988e-18
1.881441065e-18
1.833452215e-18
1.786708506e-18
1.741176934e-18
1.696825389e-18
1.65362264e-18
1.611538299e-18
1.570542809e-18
1.53060741e-18
1.491704124e-18
1.453805729e-18
1.416885742e-18
1.380918393e-18
1.34587861e-18
1.311741995e-18
1.278484811e-18
1.246083958e-18
1.214516959e-18
1.18376194e-18
1.153797616e-18
1.124603273e-18
1.096158751e-18
1.068444434e-18
1.041441227e-18
1.015130548e-18
9.894943132e-19
9.645149193e-19
9.40175234e-19
9.164585822e-19
8.933487326e-19
8.708298866e-19
8.488866659e-19
8.275041011e-19
8.066676204e-19
7.86363039e-19
7.665765486e-19
7.472947067e-19
7.285044271e-19
7.1019297e-19
6.923479325e-19
6.749572398e-19
6.58009136e-19
6.414921754e-19
6.253952144e-19
6.097074032e-19
5.944181776e-19
5.795172519e-19
5.649946107e-19
5.50840502e-19
5.370454301e-19
5.236001486e-19
5.104956537e-19
4.977231778e-19
4.852741829e-19
4.731403548e-19
4.613135969e-19
4.497860243e-19
4.385499583e-19
4.275979207e-19
4.169226287e-19
4.065169895e-19
3.963740952e-19
3.864872181e-19
3.768498056e-19
3.674554757e-19
3.582980125e-19
3.493713618e-19
3.406696265e-19
3.32187063e-19
3.239180764e-19
3.158572174e-19
3.079991777e-19
3.003387866e-19
2.928710073e-19
2.855909337e-19
2.784937862e-19
2.715749091e-19
2.648297669e-19
2.582539413e-19
2.518431281e-19
2.45593134e-19
2.394998741e-19
2.335593685e-19
2.277677402e-19
2.221212117e-19
2.166161028e-19
2.112488282e-19
2.060158943e-19
2.009138978e-19
1.959395223e-19
1.910895368e-19
1.863607932e-19
1.81750224e-19
1.772548403e-19
1.728717298e-19
1.685980545e-19
1.644310494e-19
1.603680197e-19
1.564063399e-19
1.525434511e-19
1.487768599e-19
1.451041363e-19
1.415229124e-19
1.380308803e-19
1.34625791e-19
1.313054524e-19
1.280677282e-19
1.249105362e-19
1.21831847e-19
1.188296822e-19
1.159021138e-19
1.13047262e-19
1.102632947e-19
1.075484257e-19
1.049009135e-19
1.023190602e-19
9.980121057e-20
9.734575034e-20
9.495110545e-20
9.261574083e-20
9.033815926e-20
8.811690034e-20
8.595053942e-20
8.383768655e-20
8.177698545e-20
7.97671125e-20
7.780677574e-20
7.589471387e-20
7.402969526e-20
7.221051699e-20
7.043600385e-20
6.870500738e-20
6.70164049e-20
6.536909852e-20
6.376201415e-20
6.219410055e-20
6.066432827e-20
5.917168866e-20
5.771519284e-20
5.62938706e-20
5.490676936e-20
5.355295304e-20
5.223150088e-20
5.09415063e-20
4.968207563e-20
4.845232687e-20
4.725138838e-20
4.607839751e-20
4.493249925e-20
4.381284481e-20
4.271859026e-20
4.164889521e-20
4.060292156e-20
3.957983246e-20
3.857879159e-20
3.759896278e-20
3.663951024e-20
3.569959939e-20
3.477839856e-20
3.387508095e-20
3.298882767e-20
3.211882963e-20
3.126428788e-20
3.042441072e-20
2.370202913e-20
1.684592246e-20
1.196909969e-20
8.494790481e-21
6.021647833e-21
4.263128657e-21
3.01420771e-21
2.128296405e-21
1.500683632e-21
1.056645623e-21
7.429148181e-22
5.215615448e-22
3.656096514e-22
2.558970565e-22
1.788298355e-22
1.247770652e-22
8.692494028e-23
6.045962213e-23
4.198520816e-23
2.910968132e-23
2.015075668e-23
1.392716184e-23
9.610766114e-24
6.621959192e-24
4.555743651e-24
3.129606953e-24
2.146810538e-24
1.470581041e-24
1.005994467e-24
6.872834201e-25
4.689581297e-25
3.1960717e-25
2.175761909e-25
1.479614554e-25
1.00521682e-25
6.823039039e-26
4.627401489e-26
3.135978365e-26
2.12383927e-26
1.437539169e-26
9.725327389e-27
6.576765818e-27
4.446117999e-27
3.005013006e-27
2.030691528e-27
1.372170545e-27
9.271960981e-28
6.265641128e-28
4.23466281e-28
2.862583431e-28
1.935563415e-28
1.309144621e-28
8.857611871e-29
5.995272536e-29
4.059526067e-29
2.74993822e-29
1.863609511e-29
1.263485883e-29
8.569675432e-30
5.814704782e-30
3.946815618e-30
2.679811301e-30
1.820027202e-30
1.236350719e-30
8.399729345e-31
5.707083679e-31
3.877483703e-31
2.634086212e-31
1.788989351e-31
1.214599118e-31
8.242359126e-32
5.589920847e-32
3.788211458e-32
2.564910979e-32
1.734811106e-32
1.171933005e-32
7.905870141e-33
5.324975215e-33
3.580347129e-33
2.402669088e-33
1.608940509e-33
1.074936324e-33
7.163632414e-34
4.761086768e-34
3.155202673e-34
2.084481306e-34
1.372644596e-34
9.007272095e-35
5.889435396e-35
3.836116298e-35
2.488790074e-35
1.608189238e-35
1.034829334e-35
6.63014042e-36
4.229887844e-36
2.686811875e-36
1.700508746e-36
1.071613177e-36
6.734500011e-37
4.227266367e-37
2.647792953e-37
1.66332733e-37
1.052462737e-37
6.742744199e-38
4.407732337e-38
2.977900877e-38
2.115592852e-38
1.565238404e-38
1.255285726e-38
1.074137746e-38
9.627844576e-39
8.982579217e-39
8.38544124e-39
8.236870734e-39
8.083201807e-39
7.898083774e-39
7.977510582e-39
8.019762269e-39
7.955533521e-39
7.945135594e-39
7.85201054e-39
7.908719722e-39
7.955403842e-39
7.887103826e-39
7.897921086e-39
7.883857804e-39
7.867995824e-39
7.920351067e-39
7.835285146e-39
7.968778588e-39
7.922379565e-39
7.880561153e-39
7.94766104e-39
7.896703491e-39
8.000093119e-39
7.859665408e-39
7.976245249e-39
7.846928216e-39
7.832319808e-39
7.965052447e-39
7.771334332e-39
7.813634029e-39
8.277338635e-39
7.655218827e-39
7.700952436e-39
8.209812777e-39
7.977192811e-39
8.09541576e-39
8.032068453e-39
7.829971664e-39
8.17333448e-39
7.909466991e-39
8.136296401e-39
7.844844269e-39
7.792557163e-39
8.008771229e-39
7.614185906e-39
7.860787399e-39
8.13868212e-39
8.071211494e-39
8.122301712e-39
7.820671506e-39
7.586108832e-39
7.958486771e-39
7.869989805e-39
7.93896306e-39
7.66308544e-39
7.994114847e-39
8.235962701e-39
8.007679437e-39
7.943137066e-39
8.110027432e-39
8.014665601e-39
8.033524208e-39
7.84114933e-39
7.670892737e-39
7.80259172e-39
7.719844526e-39
8.093565508e-39
8.08643817e-39
7.826764836e-39
7.911896919e-39
7.766689127e-39
8.053417678e-39
7.989165914e-39
7.998779587e-39
7.871320821e-39
7.828709587e-39
7.615774377e-39
7.92191054e-39
8.057351578e-39
7.745675323e-39
8.013914341e-39
7.978087796e-39
7.895002919e-39
7.711096491e-39
7.850008841e-39
8.001276675e-39
7.994680792e-39
7.891097217e-39
7.774127734e-39
8.063086545e-39
7.846598263e-39
7.90945186e-39
8.024152115e-39
7.816425157e-39
8.110902659e-39
7.828636483e-39
8.025410566e-39
7.795909219e-39
7.966681305e-39
7.953325775e-39
7.895242365e-39
7.722828993e-39
7.921765788e-39
7.928292302e-39
7.779018837e-39
7.891451871e-39
7.84858259e-39
7.972488807e-39
7.938809786e-39
7.944130694e-39
7.906157479e-39
7.894456813e-39
7.885577177e-39
7.875626521e-39
7.903369071e-39
7.893749848e-39
7.921007644e-39
7.968069605e-39
7.935870844e-39
7.906433037e-39
7.891798903e-39
7.999251007e-39
7.804722214e-39
7.951165296e-39
7.91434491e-39
7.898232514e-39
7.767064133e-39
7.892654253e-39
8.012559497e-39
7.823624895e-39
7.828434104e-39
7.635379532e-39
8.031515225e-39
7.865062323e-39
7.721172382e-39
7.983727384e-39
7.866384945e-39
8.031390715e-39
)
;

boundaryField
{
    inlet
    {
        type            fixedValue;
        value           uniform 0;
    }
    outlet
    {
        type            zeroGradient;
    }
    wall
    {
        type            empty;
    }
}


// ************************************************************************* //
