/*--------------------------------*- C++ -*----------------------------------*\
  =========                 |
  \\      /  F ield         | OpenFOAM: The Open Source CFD Toolbox
   \\    /   O peration     | Website:  https://openfoam.org
    \\  /    A nd           | Version:  7
     \\/     M anipulation  |
\*---------------------------------------------------------------------------*/
FoamFile
{
    version     2.0;
    format      ascii;
    class       volScalarField;
    location    "0.000558243009";
    object      NC3H7CO;
}
// * * * * * * * * * * * * * * * * * * * * * * * * * * * * * * * * * * * * * //

dimensions      [0 0 0 0 0 0 0];

internalField   nonuniform List<scalar> 
1500
(
2.302581745e-28
1.152503404e-27
3.029535604e-27
5.509472469e-27
7.847385068e-27
9.532551325e-27
1.051153048e-26
1.098860605e-26
1.119008019e-26
1.126652016e-26
1.12944868e-26
1.130617134e-26
1.131306339e-26
1.131855842e-26
1.13233644e-26
1.132749718e-26
1.133090994e-26
1.133363294e-26
1.133575965e-26
1.133740199e-26
1.133865627e-26
1.133958944e-26
1.134024217e-26
1.134064063e-26
1.134080945e-26
1.134078069e-26
1.134059689e-26
1.134030889e-26
1.133997045e-26
1.133963218e-26
1.133933651e-26
1.133911475e-26
1.133898647e-26
1.133896064e-26
1.133903766e-26
1.133921173e-26
1.133947287e-26
1.133980856e-26
1.134020478e-26
1.134064677e-26
1.134111947e-26
1.134160801e-26
1.134209833e-26
1.134257775e-26
1.134303564e-26
1.134346394e-26
1.134385736e-26
1.134421347e-26
1.134453234e-26
1.134481614e-26
1.134506843e-26
1.134529356e-26
1.1345496e-26
1.134567981e-26
1.134584827e-26
1.13460036e-26
1.134614691e-26
1.134627816e-26
1.134639627e-26
1.134649935e-26
1.134658481e-26
1.134664967e-26
1.134669069e-26
1.134670465e-26
1.134668852e-26
1.134663968e-26
1.134655609e-26
1.134643651e-26
1.134628057e-26
1.134608893e-26
1.134586331e-26
1.134560657e-26
1.134532262e-26
1.134501637e-26
1.134469363e-26
1.134436089e-26
1.134402518e-26
1.134369385e-26
1.134337433e-26
1.134307392e-26
1.134279961e-26
1.134255786e-26
1.134235446e-26
1.134219435e-26
1.134208157e-26
1.134201915e-26
1.134200904e-26
1.134205216e-26
1.134214833e-26
1.134229635e-26
1.134249403e-26
1.134273823e-26
1.134302496e-26
1.134334944e-26
1.134370627e-26
1.134408949e-26
1.134449276e-26
1.134490951e-26
1.134533308e-26
1.134575695e-26
1.134617484e-26
1.134658089e-26
1.134696989e-26
1.13473373e-26
1.134767948e-26
1.134799368e-26
1.134827815e-26
1.134853211e-26
1.134875572e-26
1.134894999e-26
1.134911669e-26
1.134925819e-26
1.134937727e-26
1.134947701e-26
1.134956053e-26
1.134963091e-26
1.134969096e-26
1.134974317e-26
1.134978959e-26
1.134983179e-26
1.134987084e-26
1.134990736e-26
1.134994156e-26
1.134997327e-26
1.135000212e-26
1.135002753e-26
1.135004886e-26
1.135006548e-26
1.135007683e-26
1.135008241e-26
1.135008188e-26
1.1350075e-26
1.135006163e-26
1.135004166e-26
1.135001502e-26
1.134998158e-26
1.134994112e-26
1.134989329e-26
1.134983761e-26
1.13497734e-26
1.134969984e-26
1.134961599e-26
1.134952082e-26
1.134941326e-26
1.134929228e-26
1.134915697e-26
1.134900657e-26
1.134884061e-26
1.134865889e-26
1.134846158e-26
1.134824921e-26
1.134802272e-26
1.134778341e-26
1.134753295e-26
1.134727331e-26
1.134700676e-26
1.134673574e-26
1.134646286e-26
1.13461908e-26
1.134592226e-26
1.134565991e-26
1.134540635e-26
1.134516408e-26
1.134493548e-26
1.134472281e-26
1.134452818e-26
1.134435361e-26
1.134420101e-26
1.134407221e-26
1.134396894e-26
1.134389286e-26
1.134384553e-26
1.134382839e-26
1.134384271e-26
1.134388957e-26
1.134396977e-26
1.134408378e-26
1.134423164e-26
1.134441291e-26
1.134462659e-26
1.134487104e-26
1.134514391e-26
1.134544213e-26
1.134576183e-26
1.134609837e-26
1.134644634e-26
1.134679961e-26
1.134715144e-26
1.13474946e-26
1.134782152e-26
1.134812457e-26
1.134839628e-26
1.13486296e-26
1.134881824e-26
1.134895691e-26
1.134904153e-26
1.134906946e-26
1.134903954e-26
1.134895206e-26
1.13488087e-26
1.13486123e-26
1.134836657e-26
1.134807581e-26
1.134774461e-26
1.134737764e-26
1.134697948e-26
1.134655466e-26
1.134610782e-26
1.134564395e-26
1.134516877e-26
1.13446891e-26
1.134421312e-26
1.134375047e-26
1.1343312e-26
1.134290922e-26
1.134255324e-26
1.134225337e-26
1.134201539e-26
1.134183959e-26
1.134171901e-26
1.134163783e-26
1.134157055e-26
1.134148198e-26
1.134132845e-26
1.134106026e-26
1.134062548e-26
1.133997487e-26
1.133906762e-26
1.133787742e-26
1.133639821e-26
1.133464875e-26
1.133267552e-26
1.133055284e-26
1.132838004e-26
1.132627509e-26
1.132436483e-26
1.132277218e-26
1.132160108e-26
1.132092043e-26
1.132074849e-26
1.13210397e-26
1.132167607e-26
1.132246617e-26
1.132315649e-26
1.132346456e-26
1.132315008e-26
1.132214377e-26
1.132072429e-26
1.131960111e-26
1.131947514e-26
1.131958482e-26
1.131963316e-26
1.131969354e-26
1.131976686e-26
1.131985399e-26
1.131995589e-26
1.132007356e-26
1.132020803e-26
1.132036041e-26
1.132053186e-26
1.132072359e-26
1.132093689e-26
1.132117307e-26
1.132143356e-26
1.132171982e-26
1.13220334e-26
1.132237591e-26
1.132274906e-26
1.132315463e-26
1.132359451e-26
1.132407065e-26
1.132458512e-26
1.132514009e-26
1.132573784e-26
1.132638076e-26
1.132707137e-26
1.13278123e-26
1.132860633e-26
1.132945638e-26
1.133036551e-26
1.133133695e-26
1.133237408e-26
1.133348049e-26
1.133465992e-26
1.133591634e-26
1.133725389e-26
1.133867698e-26
1.134019023e-26
1.13417985e-26
1.134350694e-26
1.134532097e-26
1.134724629e-26
1.134928896e-26
1.135145534e-26
1.135375217e-26
1.135618656e-26
1.135876602e-26
1.136149852e-26
1.136439245e-26
1.136745673e-26
1.137070076e-26
1.137413453e-26
1.137776861e-26
1.138161418e-26
1.138568313e-26
1.138998804e-26
1.139454224e-26
1.139935992e-26
1.14044561e-26
1.140984674e-26
1.141554878e-26
1.142158022e-26
1.142796018e-26
1.143470899e-26
1.144184824e-26
1.14494009e-26
1.145739137e-26
1.146584561e-26
1.147479125e-26
1.148425764e-26
1.149427605e-26
1.150487972e-26
1.151610401e-26
1.152798656e-26
1.154056744e-26
1.155388925e-26
1.156799734e-26
1.158293997e-26
1.159876848e-26
1.161553749e-26
1.163330511e-26
1.165213315e-26
1.167208736e-26
1.169323766e-26
1.171565838e-26
1.173942855e-26
1.176463217e-26
1.179135848e-26
1.181970233e-26
1.184976442e-26
1.188165171e-26
1.191547771e-26
1.195136293e-26
1.198943517e-26
1.202982999e-26
1.207269112e-26
1.211817088e-26
1.216643063e-26
1.221764127e-26
1.22719837e-26
1.232964936e-26
1.239084072e-26
1.245577186e-26
1.2524669e-26
1.259777111e-26
1.267533049e-26
1.27576134e-26
1.284490065e-26
1.293748833e-26
1.303568841e-26
1.313982943e-26
1.325025722e-26
1.336733562e-26
1.349144714e-26
1.36229938e-26
1.376239778e-26
1.391010222e-26
1.406657203e-26
1.423229457e-26
1.440778053e-26
1.459356464e-26
1.47902065e-26
1.499829136e-26
1.521843089e-26
1.5451264e-26
1.569745757e-26
1.595770726e-26
1.623273826e-26
1.652330602e-26
1.683019697e-26
1.71542293e-26
1.749625355e-26
1.785715335e-26
1.823784604e-26
1.863928326e-26
1.906245152e-26
1.950837276e-26
1.997810484e-26
2.047274197e-26
2.099341515e-26
2.154129247e-26
2.211757946e-26
2.272351932e-26
2.336039308e-26
2.402951976e-26
2.473225638e-26
2.546999796e-26
2.624417744e-26
2.70562655e-26
2.790777031e-26
2.880023723e-26
2.973524838e-26
3.071442216e-26
3.173941266e-26
3.281190901e-26
3.39336346e-26
3.510634624e-26
3.633183324e-26
3.761191634e-26
3.894844663e-26
4.034330429e-26
4.179839733e-26
4.331566016e-26
4.489705215e-26
4.654455599e-26
4.826017613e-26
5.004593699e-26
5.190388116e-26
5.383606755e-26
5.584456943e-26
5.793147242e-26
6.009887242e-26
6.234887356e-26
6.468358595e-26
6.710512359e-26
6.961560212e-26
7.221713657e-26
7.491183917e-26
7.770181711e-26
8.058917034e-26
8.357598934e-26
8.666435306e-26
8.985632675e-26
9.315396e-26
9.655928479e-26
1.000743136e-25
1.037010379e-25
1.074414262e-25
1.11297423e-25
1.152709473e-25
1.193638916e-25
1.23578121e-25
1.279154728e-25
1.323777557e-25
1.369667503e-25
1.416842088e-25
1.465318558e-25
1.515113893e-25
1.566244818e-25
1.618727823e-25
1.672579181e-25
1.727814977e-25
1.78445114e-25
1.842503479e-25
1.901987725e-25
1.962919582e-25
2.025314779e-25
2.089189138e-25
2.154558638e-25
2.221439497e-25
2.289848252e-25
2.359801862e-25
2.431317802e-25
2.504414182e-25
2.57910987e-25
2.65542462e-25
2.733379226e-25
2.812995669e-25
2.894297293e-25
2.977308984e-25
3.062057364e-25
3.148571004e-25
3.236880645e-25
3.327019438e-25
3.419023204e-25
3.5129307e-25
3.608783918e-25
3.706628386e-25
3.806513503e-25
3.908492884e-25
4.01262473e-25
4.118972222e-25
4.227603931e-25
4.338594261e-25
4.452023909e-25
4.567980354e-25
4.686558372e-25
4.80786058e-25
4.931998009e-25
5.059090706e-25
5.189268366e-25
5.322671001e-25
5.459449637e-25
5.599767053e-25
5.743798553e-25
5.891732771e-25
6.043772527e-25
6.200135713e-25
6.361056232e-25
6.52678497e-25
6.697590824e-25
6.873761778e-25
7.055606022e-25
7.243453129e-25
7.43765529e-25
7.638588599e-25
7.846654405e-25
8.062280721e-25
8.28592371e-25
8.518069236e-25
8.759234501e-25
9.009969764e-25
9.270860151e-25
9.54252752e-25
9.825632839e-25
1.012087791e-24
1.04290074e-24
1.075081131e-24
1.10871271e-24
1.143884218e-24
1.180689654e-24
1.219228543e-24
1.259606211e-24
1.301934084e-24
1.346329989e-24
1.392918485e-24
1.441831203e-24
1.493207201e-24
1.547193332e-24
1.603944696e-24
1.663625033e-24
1.726407188e-24
1.792473606e-24
1.862016915e-24
1.935240479e-24
2.012358961e-24
2.093598959e-24
2.179199716e-24
2.269413882e-24
2.364508343e-24
2.464765142e-24
2.570482498e-24
2.681975946e-24
2.799579636e-24
2.923647797e-24
3.054556448e-24
3.192705368e-24
3.338520435e-24
3.492456393e-24
3.655000185e-24
3.826674994e-24
4.008045182e-24
4.199722397e-24
4.402373145e-24
4.616728276e-24
4.843594915e-24
5.083871543e-24
5.338567146e-24
5.608825622e-24
5.895956971e-24
6.201477269e-24
6.527159991e-24
6.875102051e-24
7.247808862e-24
7.648304067e-24
8.080271199e-24
8.548236733e-24
9.057806759e-24
9.615973157e-24
1.023150985e-23
1.091548577e-23
1.168192922e-23
1.254868829e-23
1.353854556e-23
1.468066242e-23
1.601245043e-23
1.75819966e-23
1.945120625e-23
2.169987628e-23
2.443097435e-23
2.777748101e-23
3.191125767e-23
3.705454032e-23
4.349483626e-23
5.16042315e-23
6.186441418e-23
7.48991062e-23
9.151609527e-23
1.127617087e-22
1.399914104e-22
1.749612911e-22
2.19946634e-22
2.778955637e-22
3.526281572e-22
4.490944613e-22
5.737088388e-22
7.347832129e-22
9.430884532e-22
1.212581788e-21
1.561349328e-21
2.012827283e-21
2.597384261e-21
3.354371351e-21
4.334778259e-21
5.604674575e-21
7.249668186e-21
9.380681356e-21
1.214143381e-20
1.571813709e-20
2.035205349e-20
2.635576568e-20
3.413425322e-20
4.421219569e-20
5.726934165e-20
7.418632547e-20
9.610401811e-20
1.245004085e-19
1.612901932e-19
2.089537807e-19
2.707043976e-19
3.507045493e-19
4.543464125e-19
5.886150413e-19
7.625588488e-19
9.878990526e-19
1.279819137e-18
1.657987515e-18
2.147882312e-18
2.78250753e-18
3.604616319e-18
4.66959125e-18
6.049175891e-18
7.836309513e-18
1.015139132e-17
1.315039734e-17
1.703539859e-17
2.206819189e-17
2.858796565e-17
3.703419746e-17
4.79763351e-17
6.215227493e-17
8.051824986e-17
1.043135168e-16
1.351442422e-16
1.75092292e-16
2.268563286e-16
2.939348122e-16
3.808633433e-16
4.935224432e-16
6.395365786e-16
8.287912628e-16
1.074102735e-15
1.392084396e-15
1.804266247e-15
2.338538384e-15
3.031007333e-15
3.928374574e-15
5.090969107e-15
6.59658836e-15
8.545319991e-15
1.106552357e-14
1.432113298e-14
1.852037707e-14
2.392587609e-14
3.086580994e-14
3.974541113e-14
5.1057338e-14
6.538846266e-14
8.341922482e-14
1.059100181e-13
1.336673535e-13
1.674814038e-13
2.080271215e-13
2.557251835e-13
3.105686709e-13
3.71938205e-13
4.384512367e-13
5.079138303e-13
5.774512089e-13
6.438666323e-13
7.042037447e-13
7.563806653e-13
7.996828699e-13
8.349259962e-13
8.642670402e-13
8.908738398e-13
9.187609181e-13
9.529758105e-13
1.000166119e-12
1.06947754e-12
1.173731858e-12
1.331091807e-12
1.567752889e-12
1.922268759e-12
2.452084992e-12
3.242984645e-12
4.422411702e-12
6.177224457e-12
8.781593089e-12
1.26177124e-11
1.825458177e-11
2.644871226e-11
3.822717167e-11
5.453498443e-11
7.658503992e-11
1.052523746e-10
1.398675818e-10
1.762464109e-10
2.055372575e-10
2.177752741e-10
2.105156221e-10
1.9042932e-10
1.663115304e-10
1.441183391e-10
1.262328497e-10
1.138720871e-10
1.060131413e-10
1.016412369e-10
9.965325958e-11
9.921368767e-11
9.955684297e-11
1.002246601e-10
1.013024414e-10
1.02164369e-10
1.022941639e-10
1.012573303e-10
9.874118431e-11
9.460458855e-11
8.888158546e-11
8.173201559e-11
7.365881749e-11
6.496930859e-11
5.628037738e-11
4.794420594e-11
4.02523233e-11
3.338102658e-11
2.739576947e-11
2.221687917e-11
1.782545924e-11
1.419691442e-11
1.123553017e-11
8.847896359e-12
6.939520914e-12
5.422283376e-12
4.223408103e-12
3.281460996e-12
2.542428755e-12
1.979546897e-12
1.540203465e-12
1.192215362e-12
9.228229512e-13
7.144324939e-13
5.532391171e-13
4.285293887e-13
3.320222088e-13
2.574393069e-13
1.996255206e-13
1.548702335e-13
1.202169956e-13
9.33782088e-14
7.25840945e-14
5.646585681e-14
4.396513579e-14
3.426379261e-14
2.672947165e-14
2.08734222e-14
1.631784671e-14
1.277064557e-14
1.00058988e-14
7.848791511e-15
6.163977544e-15
4.846599387e-15
3.815360617e-15
3.007180626e-15
2.373070173e-15
1.874948125e-15
1.48318359e-15
1.174697223e-15
9.314936012e-16
7.395260544e-16
5.878179558e-16
4.677819887e-16
3.72692312e-16
2.972749036e-16
2.373893114e-16
1.897811643e-16
1.518895097e-16
1.216966699e-16
9.761110516e-17
7.837592509e-17
6.299735158e-17
5.068871784e-17
4.082657893e-17
3.291627421e-17
2.656487471e-17
2.145990682e-17
1.735259946e-17
1.404467753e-17
1.137793888e-17
9.226018604e-18
7.487874169e-18
6.082625906e-18
4.945466284e-18
4.02441293e-18
3.277728505e-18
2.671868234e-18
2.179845399e-18
1.779928299e-18
1.454600345e-18
1.189729299e-18
9.739028956e-19
7.978969978e-19
6.542494098e-19
5.369180258e-19
4.410063562e-19
3.6254294e-19
2.983038972e-19
2.456700509e-19
2.025117778e-19
1.670961234e-19
1.380118093e-19
1.141086329e-19
9.444845553e-20
7.826552893e-20
6.493435414e-20
5.394362099e-20
4.487506091e-20
3.738627301e-20
3.11967657e-20
2.607660327e-20
2.183716415e-20
1.83236125e-20
1.540876079e-20
1.298806291e-20
1.097552657e-20
9.300373816e-21
7.904310897e-21
6.739294737e-21
5.765704435e-21
4.950843367e-21
4.267711326e-21
3.693997317e-21
3.211252853e-21
2.804212996e-21
2.460238338e-21
2.168856142e-21
1.921382772e-21
1.710612815e-21
1.530562993e-21
1.376261043e-21
1.243571596e-21
1.129052467e-21
1.029835996e-21
9.435309899e-22
8.681416712e-22
8.020006195e-22
7.437132738e-22
6.92111968e-22
6.462178458e-22
6.05209284e-22
5.683956919e-22
5.351957633e-22
5.051194137e-22
4.77752769e-22
4.527456788e-22
4.298013282e-22
4.086675869e-22
3.891298005e-22
3.710047808e-22
3.5413579e-22
3.383883546e-22
3.236467663e-22
3.098111556e-22
2.967950436e-22
2.845232894e-22
2.729303712e-22
2.619589429e-22
2.515586211e-22
2.416849658e-22
2.32298622e-22
2.233645958e-22
2.148516442e-22
2.067317583e-22
1.989797274e-22
1.915727677e-22
1.844902085e-22
1.777132247e-22
1.712246089e-22
1.650085764e-22
1.590505991e-22
1.533372623e-22
1.478561421e-22
1.425956994e-22
1.375451882e-22
1.326945765e-22
1.28034477e-22
1.235560873e-22
1.192511368e-22
1.151118409e-22
1.111308597e-22
1.073012628e-22
1.036164963e-22
1.000703554e-22
9.665695822e-23
9.337072338e-23
9.02063493e-23
8.715879572e-23
8.422326691e-23
8.139519631e-23
7.867023264e-23
7.604422709e-23
7.351322165e-23
7.107343827e-23
6.872126888e-23
6.645326622e-23
6.426613522e-23
6.215672506e-23
6.012202176e-23
5.815914122e-23
5.626532276e-23
5.4437923e-23
5.267441021e-23
5.09723589e-23
4.932944477e-23
4.774343996e-23
4.621220855e-23
4.473370233e-23
4.330595674e-23
4.192708713e-23
4.05952851e-23
3.930881512e-23
3.806601128e-23
3.686527423e-23
3.570506822e-23
3.458391839e-23
3.350040805e-23
3.245317623e-23
3.144091525e-23
3.046236847e-23
2.951632811e-23
2.860163317e-23
2.771716748e-23
2.68618578e-23
2.603467205e-23
2.523461756e-23
2.446073951e-23
2.371211927e-23
2.2987873e-23
2.228715017e-23
2.160913223e-23
2.095303131e-23
2.031808895e-23
1.970357496e-23
1.910878623e-23
1.85330457e-23
1.797570126e-23
1.743612483e-23
1.691371134e-23
1.640787785e-23
1.591806268e-23
1.544372458e-23
1.49843419e-23
1.453941188e-23
1.410844986e-23
1.369098859e-23
1.328657759e-23
1.289478249e-23
1.251518436e-23
1.214737922e-23
1.179097735e-23
1.144560286e-23
1.111089309e-23
1.078649812e-23
1.047208033e-23
1.01673139e-23
9.871884364e-24
9.585488208e-24
9.307832453e-24
9.038634258e-24
8.77762055e-24
8.524527659e-24
8.279100975e-24
8.04109461e-24
7.810271083e-24
7.586401009e-24
7.369262804e-24
7.158642406e-24
6.954332994e-24
6.756134733e-24
6.563854518e-24
6.377305733e-24
6.196308019e-24
6.020687049e-24
5.850274312e-24
5.684906908e-24
5.524427345e-24
5.368683351e-24
5.217527689e-24
5.070817977e-24
4.928416519e-24
4.790190143e-24
4.656010038e-24
4.525751603e-24
4.399294305e-24
4.276521532e-24
4.157320459e-24
4.041581917e-24
3.929200271e-24
3.82007329e-24
3.714102039e-24
3.611190759e-24
3.511246764e-24
3.414180333e-24
3.319904611e-24
3.22833551e-24
3.139391617e-24
3.052994103e-24
2.969066636e-24
2.887535296e-24
2.808328497e-24
2.731376908e-24
2.656613373e-24
2.583972845e-24
2.513392315e-24
2.444810739e-24
2.37816898e-24
2.313409739e-24
2.250477499e-24
2.189318465e-24
2.129880505e-24
2.0721131e-24
2.015967288e-24
1.961395614e-24
1.908352081e-24
1.856792104e-24
1.806672463e-24
1.757951257e-24
1.710587865e-24
1.664542904e-24
1.619778187e-24
1.576256686e-24
1.533942497e-24
1.492800799e-24
1.452797825e-24
1.413900825e-24
1.376078035e-24
1.339298645e-24
1.303532769e-24
1.268751417e-24
1.234926465e-24
1.20203063e-24
1.170037439e-24
1.138921211e-24
1.108657025e-24
1.0792207e-24
1.050588772e-24
1.022738469e-24
9.956476944e-25
9.692950002e-25
9.436595713e-25
9.187212039e-25
8.944602879e-25
8.708577873e-25
8.478952233e-25
8.255546569e-25
8.038186729e-25
7.82670363e-25
7.620933115e-25
7.420715792e-25
7.225896895e-25
7.036326142e-25
6.8518576e-25
6.672349551e-25
6.497664368e-25
6.327668386e-25
6.162231791e-25
6.001228496e-25
5.844536034e-25
5.692035448e-25
5.543611185e-25
5.399150998e-25
5.258545841e-25
5.121689779e-25
4.988479894e-25
4.858816195e-25
4.732601531e-25
4.609741506e-25
4.4901444e-25
4.373721089e-25
4.260384967e-25
4.150051874e-25
4.042640023e-25
3.938069929e-25
3.836264345e-25
3.737148194e-25
3.640648504e-25
3.546694351e-25
3.455216797e-25
3.366148829e-25
3.279425311e-25
3.194982919e-25
3.1127601e-25
3.032697009e-25
2.954735471e-25
2.878818922e-25
2.804892373e-25
2.732902355e-25
2.662796883e-25
2.594525407e-25
2.528038777e-25
2.463289199e-25
2.400230195e-25
2.33881657e-25
2.279004371e-25
2.220750856e-25
2.164014453e-25
2.108754735e-25
2.054932379e-25
2.002509143e-25
1.951447827e-25
1.901712252e-25
1.853267223e-25
1.806078508e-25
1.760112806e-25
1.715337724e-25
1.67172175e-25
1.629234228e-25
1.587845334e-25
1.547526054e-25
1.50824816e-25
1.469984188e-25
1.432707418e-25
1.396391852e-25
1.361012193e-25
1.326543829e-25
1.292962808e-25
1.260245828e-25
1.228370209e-25
1.197313884e-25
1.16705538e-25
1.137573797e-25
1.108848799e-25
1.080860593e-25
1.053589917e-25
1.027018023e-25
1.001126668e-25
9.758980918e-26
9.513150115e-26
9.27360604e-26
9.04018495e-26
8.812727461e-26
8.591078433e-26
8.37508685e-26
8.164605712e-26
7.959491919e-26
7.759606171e-26
7.56481286e-26
7.374979971e-26
7.189978986e-26
7.009684785e-26
6.833975557e-26
6.662732708e-26
6.495840778e-26
6.33318735e-26
6.174662971e-26
6.020161073e-26
5.869577892e-26
5.722812394e-26
5.579766202e-26
5.440343522e-26
5.304451076e-26
5.171998032e-26
5.042895941e-26
4.917058669e-26
4.794402338e-26
4.674845265e-26
4.558307901e-26
4.444712776e-26
4.333984441e-26
4.226049417e-26
4.120836139e-26
4.018274907e-26
3.918297835e-26
3.820838801e-26
3.725833403e-26
3.63321891e-26
3.542934219e-26
3.45491981e-26
3.369117707e-26
3.285471429e-26
3.20392596e-26
3.124427702e-26
3.046924438e-26
2.971365298e-26
2.897700721e-26
2.825882419e-26
2.755863341e-26
2.687597646e-26
2.62104066e-26
2.556148853e-26
2.492879804e-26
2.43119217e-26
2.371045655e-26
2.312400986e-26
2.255219878e-26
2.199465011e-26
2.145099999e-26
2.092089366e-26
2.040398517e-26
1.989993713e-26
1.940842046e-26
1.892911413e-26
1.846170493e-26
1.800588718e-26
1.756136254e-26
1.712783972e-26
1.670503428e-26
1.629266838e-26
1.58904705e-26
1.549817527e-26
1.511552317e-26
1.474226033e-26
1.437813824e-26
1.402291356e-26
1.36763478e-26
1.333820715e-26
1.300826211e-26
1.268628733e-26
1.237206125e-26
1.206536585e-26
1.176598635e-26
1.147371089e-26
1.118833025e-26
1.090963747e-26
1.063742752e-26
1.037149699e-26
1.011164366e-26
9.857666161e-27
9.609363556e-27
9.36653494e-27
9.128978989e-27
8.896493475e-27
8.668874711e-27
8.445916935e-27
8.227411452e-27
8.013145884e-27
7.802903041e-27
7.596460194e-27
7.393589037e-27
7.194058376e-27
5.595538038e-27
3.97800754e-27
2.825132674e-27
2.004355142e-27
1.420534691e-27
1.005662162e-27
7.111446483e-28
5.022884895e-28
3.543426867e-28
2.496638618e-28
1.756864571e-28
1.234698853e-28
8.665928392e-29
6.074254439e-29
4.251955914e-29
2.972336681e-29
2.074999163e-29
1.446596531e-29
1.007133706e-29
7.00227977e-30
4.861929724e-30
3.371326959e-30
2.334662009e-30
1.614685557e-30
1.115332607e-30
7.694615339e-31
5.30213611e-31
3.649332795e-31
2.508959069e-31
1.723105147e-31
1.182197903e-31
8.103122882e-32
5.549111353e-32
3.796902533e-32
2.595958281e-32
1.773603029e-32
1.210973073e-32
8.263449213e-33
5.635945552e-33
3.842205907e-33
2.618379906e-33
1.783824099e-33
1.214975983e-33
8.273842705e-34
5.633758148e-34
3.83587516e-34
2.611748352e-34
1.77835714e-34
1.211012122e-34
8.24780165e-35
5.618301021e-35
3.827634984e-35
2.608556388e-35
1.778081529e-35
1.212144062e-35
8.266553694e-36
5.638936178e-36
3.846711133e-36
2.624916691e-36
1.790947638e-36
1.22233662e-36
8.345770729e-37
5.692923169e-37
3.890987459e-37
2.656528872e-37
1.811267355e-37
1.235285036e-37
8.425028116e-38
5.745424025e-38
3.902759477e-38
2.666829161e-38
1.814009489e-38
1.234673153e-38
8.337497767e-39
5.719111983e-39
3.545117146e-39
2.934060448e-39
1.570543568e-39
1.506304041e-39
5.55799139e-40
2.208425948e-40
5.911120313e-40
4.416810631e-40
2.28349604e-40
2.679554196e-40
5.94740773e-41
4.341521949e-41
1.275665319e-41
0
1.14275356e-40
2.455811213e-42
2.663970764e-41
1.69307011e-41
2.828067202e-41
4.823097376e-41
7.900964382e-42
0
2.725730486e-41
0
2.491740799e-42
9.122067081e-42
2.227253042e-43
2.071420188e-42
0
8.342555242e-42
0
8.494150156e-42
1.958397206e-42
4.40068829e-44
1.737407102e-42
1.336307904e-42
9.342333129e-44
7.422584585e-42
4.507879612e-43
6.002257043e-42
7.153684323e-42
1.449844611e-42
3.561437821e-42
5.707521757e-42
1.119596774e-43
0
0
0
0
1.378084011e-43
3.005939683e-42
0
5.147876653e-43
0
4.866583867e-43
8.963413565e-43
0
0
0
0
1.592911978e-42
4.512619899e-42
8.707479329e-43
1.650344881e-43
3.105996568e-42
3.089403808e-42
8.737263007e-44
4.632407099e-42
3.66195461e-42
4.358506304e-44
0
0
4.07305653e-44
1.244790355e-42
5.074336259e-42
2.789110828e-42
6.943091069e-44
2.676845807e-42
2.844292846e-42
1.564505823e-43
4.90561417e-45
6.878819472e-42
6.622219832e-43
3.963273845e-42
6.321364698e-42
0
4.091505027e-44
4.926629876e-44
2.722744878e-42
6.975199996e-44
6.983783176e-42
7.98074348e-44
0
1.031734329e-41
1.466317084e-42
0
6.376189077e-43
0
7.389018643e-42
7.651249818e-44
0
4.056097339e-44
6.244227082e-44
0
2.526821975e-43
0
1.122644862e-41
0
1.01406657e-41
0
6.441538321e-42
2.311720822e-41
8.901195444e-42
7.746895585e-42
1.249331945e-41
6.058634996e-42
0
1.222065881e-41
4.723073593e-42
0
3.044849869e-42
5.244788102e-42
1.876958671e-41
0
5.229556272e-42
4.679672671e-42
0
0
6.960896911e-42
4.472122283e-42
3.165551349e-43
1.207207279e-41
1.043656548e-43
2.011240288e-42
0
0
1.058194725e-42
3.73082018e-44
1.468671418e-45
0
1.796525948e-44
6.306414704e-42
1.057010469e-42
2.635866505e-42
3.178155027e-42
7.201989499e-43
3.418129513e-42
5.287534141e-44
5.361144987e-43
2.604930202e-45
1.321824e-42
5.445745833e-43
8.214591226e-44
3.329948096e-44
0
1.020749535e-42
1.684389644e-42
0
1.350310358e-42
1.745720516e-42
0
0
0
4.630699478e-42
0
7.813192686e-44
0
0
0
3.157540584e-43
2.671516035e-42
0
6.769543753e-44
1.775514472e-42
1.254127049e-41
)
;

boundaryField
{
    inlet
    {
        type            fixedValue;
        value           uniform 0;
    }
    outlet
    {
        type            zeroGradient;
    }
    wall
    {
        type            empty;
    }
}


// ************************************************************************* //
