/*--------------------------------*- C++ -*----------------------------------*\
  =========                 |
  \\      /  F ield         | OpenFOAM: The Open Source CFD Toolbox
   \\    /   O peration     | Website:  https://openfoam.org
    \\  /    A nd           | Version:  7
     \\/     M anipulation  |
\*---------------------------------------------------------------------------*/
FoamFile
{
    version     2.0;
    format      ascii;
    class       volScalarField;
    location    "0.000558243009";
    object      NC3H7COCH2_0;
}
// * * * * * * * * * * * * * * * * * * * * * * * * * * * * * * * * * * * * * //

dimensions      [0 0 0 0 0 0 0];

internalField   nonuniform List<scalar> 
1500
(
4.806674571e-18
1.869966933e-17
3.844569325e-17
5.736709982e-17
7.120427997e-17
7.946945407e-17
8.366301364e-17
8.551484724e-17
8.623882489e-17
8.649279129e-17
8.657362665e-17
8.659719365e-17
8.66035378e-17
8.660512556e-17
8.660549716e-17
8.660557891e-17
8.660559589e-17
8.660559924e-17
8.660559986e-17
8.660559997e-17
8.660559999e-17
8.66056e-17
8.66056e-17
8.66056e-17
8.66056e-17
8.66056e-17
8.66056e-17
8.66056e-17
8.66056e-17
8.66056e-17
8.66056e-17
8.66056e-17
8.66056e-17
8.66056e-17
8.66056e-17
8.66056e-17
8.66056e-17
8.66056e-17
8.66056e-17
8.66056e-17
8.66056e-17
8.66056e-17
8.66056e-17
8.66056e-17
8.66056e-17
8.66056e-17
8.66056e-17
8.66056e-17
8.66056e-17
8.66056e-17
8.66056e-17
8.66056e-17
8.66056e-17
8.66056e-17
8.66056e-17
8.66056e-17
8.66056e-17
8.66056e-17
8.66056e-17
8.66056e-17
8.66056e-17
8.66056e-17
8.66056e-17
8.66056e-17
8.66056e-17
8.66056e-17
8.66056e-17
8.66056e-17
8.66056e-17
8.66056e-17
8.66056e-17
8.66056e-17
8.66056e-17
8.66056e-17
8.66056e-17
8.66056e-17
8.66056e-17
8.66056e-17
8.66056e-17
8.66056e-17
8.66056e-17
8.66056e-17
8.66056e-17
8.66056e-17
8.66056e-17
8.66056e-17
8.66056e-17
8.66056e-17
8.66056e-17
8.66056e-17
8.66056e-17
8.66056e-17
8.66056e-17
8.66056e-17
8.66056e-17
8.66056e-17
8.66056e-17
8.66056e-17
8.66056e-17
8.66056e-17
8.66056e-17
8.66056e-17
8.66056e-17
8.66056e-17
8.66056e-17
8.66056e-17
8.66056e-17
8.66056e-17
8.66056e-17
8.66056e-17
8.66056e-17
8.66056e-17
8.66056e-17
8.66056e-17
8.66056e-17
8.66056e-17
8.66056e-17
8.66056e-17
8.66056e-17
8.66056e-17
8.66056e-17
8.66056e-17
8.66056e-17
8.66056e-17
8.66056e-17
8.66056e-17
8.66056e-17
8.66056e-17
8.66056e-17
8.66056e-17
8.66056e-17
8.66056e-17
8.66056e-17
8.66056e-17
8.66056e-17
8.66056e-17
8.66056e-17
8.66056e-17
8.66056e-17
8.66056e-17
8.66056e-17
8.66056e-17
8.66056e-17
8.66056e-17
8.66056e-17
8.66056e-17
8.66056e-17
8.66056e-17
8.66056e-17
8.66056e-17
8.66056e-17
8.66056e-17
8.66056e-17
8.66056e-17
8.66056e-17
8.66056e-17
8.66056e-17
8.66056e-17
8.66056e-17
8.66056e-17
8.66056e-17
8.66056e-17
8.66056e-17
8.66056e-17
8.66056e-17
8.66056e-17
8.66056e-17
8.66056e-17
8.66056e-17
8.66056e-17
8.66056e-17
8.66056e-17
8.66056e-17
8.66056e-17
8.66056e-17
8.66056e-17
8.66056e-17
8.66056e-17
8.66056e-17
8.66056e-17
8.66056e-17
8.66056e-17
8.66056e-17
8.66056e-17
8.66056e-17
8.66056e-17
8.66056e-17
8.66056e-17
8.66056e-17
8.66056e-17
8.66056e-17
8.66056e-17
8.66056e-17
8.66056e-17
8.66056e-17
8.66056e-17
8.66056e-17
8.66056e-17
8.66056e-17
8.66056e-17
8.66056e-17
8.66056e-17
8.66056e-17
8.66056e-17
8.66056e-17
8.66056e-17
8.66056e-17
8.66056e-17
8.66056e-17
8.66056e-17
8.66056e-17
8.66056e-17
8.66056e-17
8.66056e-17
8.66056e-17
8.66056e-17
8.66056e-17
8.66056e-17
8.66056e-17
8.66056e-17
8.66056e-17
8.66056e-17
8.66056e-17
8.66056e-17
8.66056e-17
8.66056e-17
8.66056e-17
8.66056e-17
8.66056e-17
8.66056e-17
8.66056e-17
8.66056e-17
8.66056e-17
8.66056e-17
8.66056e-17
8.660560001e-17
8.660560001e-17
8.660560002e-17
8.660560005e-17
8.660560014e-17
8.66056005e-17
8.660560207e-17
8.66056087e-17
8.660563488e-17
8.66057298e-17
8.660604276e-17
8.660696791e-17
8.660936712e-17
8.66145857e-17
8.662295762e-17
8.662499582e-17
8.662577467e-17
8.662658642e-17
8.662743238e-17
8.662831365e-17
8.662923152e-17
8.663018748e-17
8.663118317e-17
8.663222032e-17
8.663330074e-17
8.663442632e-17
8.663559902e-17
8.663682088e-17
8.663809404e-17
8.663942074e-17
8.664080332e-17
8.664224424e-17
8.664374604e-17
8.664531143e-17
8.664694319e-17
8.664864429e-17
8.665041778e-17
8.66522669e-17
8.665419502e-17
8.665620567e-17
8.665830257e-17
8.66604896e-17
8.666277082e-17
8.666515051e-17
8.666763314e-17
8.667022341e-17
8.667292624e-17
8.667574681e-17
8.667869054e-17
8.668176314e-17
8.668497059e-17
8.668831917e-17
8.669181552e-17
8.669546656e-17
8.669927962e-17
8.670326239e-17
8.670742295e-17
8.671176984e-17
8.671631201e-17
8.672105893e-17
8.672602055e-17
8.673120738e-17
8.673663049e-17
8.674230157e-17
8.674823296e-17
8.675443769e-17
8.676092951e-17
8.676772297e-17
8.677483345e-17
8.67822772e-17
8.679007145e-17
8.679823441e-17
8.680678537e-17
8.681574479e-17
8.682513434e-17
8.683497699e-17
8.684529713e-17
8.685612065e-17
8.6867475e-17
8.687938939e-17
8.689189482e-17
8.690502426e-17
8.691881276e-17
8.693329763e-17
8.694851854e-17
8.696451776e-17
8.698134027e-17
8.6999034e-17
8.701765e-17
8.703724271e-17
8.705787013e-17
8.707959414e-17
8.710248072e-17
8.712660025e-17
8.715202782e-17
8.717884357e-17
8.720713301e-17
8.723698741e-17
8.72685042e-17
8.730178737e-17
8.733694793e-17
8.73741044e-17
8.741338327e-17
8.745491958e-17
8.749885747e-17
8.754535077e-17
8.759456365e-17
8.764667127e-17
8.770186053e-17
8.776033077e-17
8.782229458e-17
8.788797863e-17
8.795762457e-17
8.803148989e-17
8.810984893e-17
8.819299388e-17
8.828123585e-17
8.837490595e-17
8.84743565e-17
8.857996217e-17
8.869212132e-17
8.881125726e-17
8.893781966e-17
8.907228595e-17
8.921516278e-17
8.93669876e-17
8.952833018e-17
8.969979432e-17
8.988201946e-17
9.007568248e-17
9.028149945e-17
9.050022749e-17
9.073266662e-17
9.097966175e-17
9.124210457e-17
9.152093559e-17
9.18171462e-17
9.213178071e-17
9.246593847e-17
9.282077596e-17
9.319750898e-17
9.359741475e-17
9.402183411e-17
9.447217362e-17
9.49499078e-17
9.545658119e-17
9.599381051e-17
9.656328672e-17
9.716677713e-17
9.780612734e-17
9.848326323e-17
9.920019285e-17
9.995900824e-17
1.007618872e-16
1.016110947e-16
1.025089848e-16
1.034580019e-16
1.044606818e-16
1.055196533e-16
1.066376387e-16
1.078174551e-16
1.09062015e-16
1.103743264e-16
1.117574937e-16
1.132147174e-16
1.147492939e-16
1.163646157e-16
1.180641702e-16
1.198515393e-16
1.21730398e-16
1.237045136e-16
1.257777433e-16
1.279540332e-16
1.302374154e-16
1.32632006e-16
1.351420022e-16
1.377716791e-16
1.405253868e-16
1.434075461e-16
1.464226452e-16
1.495752352e-16
1.528699252e-16
1.56311378e-16
1.599043048e-16
1.636534594e-16
1.675636329e-16
1.716396477e-16
1.758863512e-16
1.803086089e-16
1.849112984e-16
1.896993019e-16
1.946774993e-16
1.998507607e-16
2.05223939e-16
2.10801862e-16
2.165893249e-16
2.225910822e-16
2.288118398e-16
2.352562466e-16
2.419288869e-16
2.48834272e-16
2.559768319e-16
2.633609077e-16
2.709907435e-16
2.788704781e-16
2.870041379e-16
2.953956288e-16
3.040487294e-16
3.12967083e-16
3.221541917e-16
3.31613409e-16
3.41347934e-16
3.513608055e-16
3.616548962e-16
3.722329076e-16
3.830973657e-16
3.942506167e-16
4.05694823e-16
4.174319605e-16
4.294638161e-16
4.417919853e-16
4.544178715e-16
4.673426847e-16
4.805674422e-16
4.940929689e-16
5.079198989e-16
5.220486778e-16
5.364795657e-16
5.512126409e-16
5.66247805e-16
5.815847878e-16
5.972231544e-16
6.131623118e-16
6.294015177e-16
6.459398893e-16
6.627764138e-16
6.79909959e-16
6.973392858e-16
7.150630612e-16
7.330798726e-16
7.513882429e-16
7.699866468e-16
7.888735285e-16
8.0804732e-16
8.27506461e-16
8.472494199e-16
8.672747157e-16
8.875809415e-16
9.081667889e-16
9.290310745e-16
9.501727663e-16
9.71591013e-16
9.932851734e-16
1.015254848e-15
1.037499912e-15
1.060020549e-15
1.082817288e-15
1.105891038e-15
1.129243131e-15
1.15287536e-15
1.176790019e-15
1.200989952e-15
1.225478596e-15
1.250260027e-15
1.275339013e-15
1.30072106e-15
1.32641247e-15
1.352420393e-15
1.378752883e-15
1.405418962e-15
1.432428675e-15
1.459793154e-15
1.487524689e-15
1.515636786e-15
1.544144245e-15
1.573063226e-15
1.602411327e-15
1.632207662e-15
1.662472932e-15
1.69322953e-15
1.724501603e-15
1.756315133e-15
1.788698039e-15
1.821680264e-15
1.855293874e-15
1.889573151e-15
1.924554697e-15
1.96027753e-15
1.996783188e-15
2.034115836e-15
2.072322366e-15
2.111452511e-15
2.151558956e-15
2.192697441e-15
2.234926891e-15
2.278309532e-15
2.322911019e-15
2.368800551e-15
2.416051026e-15
2.464739159e-15
2.514945606e-15
2.566755103e-15
2.620256616e-15
2.675543485e-15
2.732713572e-15
2.791869417e-15
2.853118391e-15
2.916572862e-15
2.98235036e-15
3.050573752e-15
3.121371419e-15
3.194877442e-15
3.271231795e-15
3.350580543e-15
3.433076052e-15
3.518877207e-15
3.608149634e-15
3.701065943e-15
3.797805975e-15
3.89855706e-15
4.003514299e-15
4.112880848e-15
4.226868224e-15
4.345696631e-15
4.469595298e-15
4.598802843e-15
4.733567652e-15
4.87414829e-15
5.020813929e-15
5.173844809e-15
5.333532721e-15
5.500181533e-15
5.674107737e-15
5.855641042e-15
6.045125005e-15
6.242917705e-15
6.449392464e-15
6.664938626e-15
6.889962391e-15
7.12488772e-15
7.370157313e-15
7.626233682e-15
7.893600317e-15
8.172762985e-15
8.464251172e-15
8.768619702e-15
9.086450579e-15
9.418355101e-15
9.764976323e-15
1.012699195e-14
1.050511779e-14
1.090011195e-14
1.13127799e-14
1.17439808e-14
1.219463541e-14
1.266573597e-14
1.315835885e-14
1.367368066e-14
1.421299907e-14
1.477775959e-14
1.536959049e-14
1.59903481e-14
1.664217613e-14
1.732758315e-14
1.804954423e-14
1.881163424e-14
1.96182031e-14
2.047460604e-14
2.138750676e-14
2.23652763e-14
2.341851844e-14
2.456076173e-14
2.580937125e-14
2.718675009e-14
2.872192281e-14
3.045262236e-14
3.242804076e-14
3.471245476e-14
3.739000477e-14
4.057099382e-14
4.440018989e-14
4.906776843e-14
5.482373393e-14
6.199692586e-14
7.10200647e-14
8.246275561e-14
9.707497469e-14
1.15844363e-13
1.400717063e-13
1.714703625e-13
2.122972231e-13
2.655251892e-13
3.350702951e-13
4.260907546e-13
5.453806484e-13
7.018881215e-13
9.073973508e-13
1.177425866e-12
1.532404982e-12
1.999232292e-12
2.613312987e-12
3.421243106e-12
4.4843355e-12
5.883251511e-12
7.724082731e-12
1.014633332e-11
1.333339172e-11
1.752626068e-11
2.304154846e-11
3.02950279e-11
3.983246319e-11
5.236991257e-11
6.884637042e-11
9.04924549e-11
1.189199276e-10
1.562382116e-10
2.05205831e-10
2.694269205e-10
3.536057593e-10
4.638758036e-10
6.082240724e-10
7.970371652e-10
1.043801836e-09
1.366001124e-09
1.786256742e-09
2.333779923e-09
3.046206357e-09
3.971906258e-09
5.172877861e-09
6.728351539e-09
8.739251599e-09
1.133368286e-08
1.467362798e-08
1.896305743e-08
2.445766498e-08
3.147644459e-08
4.041531759e-08
5.176299837e-08
6.611925112e-08
8.421563703e-08
1.06938782e-07
1.353561095e-07
1.707438879e-07
2.1461734e-07
2.687624647e-07
3.352691359e-07
4.165649762e-07
5.154494688e-07
6.351277624e-07
7.792436519e-07
9.519112706e-07
1.157745115e-06
1.401888138e-06
1.690037762e-06
2.028470067e-06
2.4240622e-06
2.884314229e-06
3.417371458e-06
4.032049493e-06
4.7378656e-06
5.54508117e-06
6.464757566e-06
7.50801265e-06
8.689399252e-06
1.001703268e-05
1.151683116e-05
1.319737593e-05
1.50570778e-05
1.697982856e-05
1.888963392e-05
2.055787678e-05
2.164433494e-05
2.180928661e-05
2.092717637e-05
1.918586998e-05
1.692435345e-05
1.442352776e-05
1.186831247e-05
9.39768065e-06
7.073936391e-06
5.10889982e-06
3.513105823e-06
2.300990999e-06
1.42852039e-06
8.59673606e-07
5.047373652e-07
2.930931871e-07
1.704038233e-07
1.000304107e-07
5.950675746e-08
3.590014509e-08
2.195040949e-08
1.359041412e-08
8.513955929e-09
5.380437569e-09
3.445222373e-09
2.219263027e-09
1.445752466e-09
9.501441866e-10
6.29978058e-10
4.21612227e-10
2.851343859e-10
1.944886576e-10
1.336141327e-10
9.298556579e-11
6.569620972e-11
4.723217286e-11
3.463930391e-11
2.597228227e-11
1.994199322e-11
1.569095174e-11
1.264792451e-11
1.04690146e-11
8.845847298e-12
7.598745585e-12
6.632667256e-12
5.866316089e-12
5.244280798e-12
4.728508056e-12
4.292593372e-12
3.918213313e-12
3.591748763e-12
3.303863771e-12
3.047536545e-12
2.817516618e-12
2.609802374e-12
2.421282766e-12
2.249489886e-12
2.092426939e-12
1.948447777e-12
1.816171835e-12
1.694423467e-12
1.582188279e-12
1.478581228e-12
1.38282298e-12
1.294222096e-12
1.21216136e-12
1.136087097e-12
1.065500653e-12
9.999514798e-13
9.390314276e-13
8.823699453e-13
8.296300034e-13
7.805045812e-13
7.347136132e-13
6.920013118e-13
6.521338059e-13
6.148970463e-13
5.800949393e-13
5.475476802e-13
5.170902576e-13
4.885711122e-13
4.618509277e-13
4.368015423e-13
4.133049659e-13
3.912524914e-13
3.705438911e-13
3.510866893e-13
3.327955017e-13
3.155914378e-13
2.994015563e-13
2.84158372e-13
2.697994057e-13
2.562667758e-13
2.43506825e-13
2.314697815e-13
2.201094481e-13
2.0938292e-13
1.992503259e-13
1.896745916e-13
1.806212236e-13
1.720581114e-13
1.639553457e-13
1.562850519e-13
1.490212378e-13
1.42139653e-13
1.356176607e-13
1.294341184e-13
1.2356927e-13
1.180046449e-13
1.127229659e-13
1.07708064e-13
1.029448002e-13
9.841899261e-14
9.41173503e-14
9.0027411e-14
8.61374843e-14
8.243659881e-14
7.891445338e-14
7.556137189e-14
7.236826138e-14
6.932657326e-14
6.642826733e-14
6.366577841e-14
6.103198539e-14
5.852018242e-14
5.612405221e-14
5.383764119e-14
5.165533639e-14
4.957184394e-14
4.758216907e-14
4.568159747e-14
4.38656779e-14
4.213020603e-14
4.047120932e-14
3.888493292e-14
3.736782655e-14
3.591653219e-14
3.452787261e-14
3.319884065e-14
3.192658919e-14
3.070842177e-14
2.954178378e-14
2.84242543e-14
2.735353834e-14
2.632745965e-14
2.534395396e-14
2.440106263e-14
2.34969267e-14
2.262978133e-14
2.179795053e-14
2.099984225e-14
2.023394375e-14
1.949881728e-14
1.879309596e-14
1.811547995e-14
1.746473285e-14
1.683967829e-14
1.62391967e-14
1.566222235e-14
1.510774045e-14
1.457478453e-14
1.406243387e-14
1.356981113e-14
1.309608013e-14
1.26404437e-14
1.220214172e-14
1.178044919e-14
1.137467447e-14
1.098415759e-14
1.060826869e-14
1.024640645e-14
9.897996737e-15
9.562491227e-15
9.239366131e-15
8.928121004e-15
8.628277599e-15
8.33937879e-15
8.060987551e-15
7.792685987e-15
7.53407442e-15
7.284770518e-15
7.044408471e-15
6.812638212e-15
6.589124673e-15
6.373547086e-15
6.165598313e-15
5.964984214e-15
5.771423045e-15
5.584644891e-15
5.404391118e-15
5.230413862e-15
5.062475537e-15
4.900348372e-15
4.743813968e-15
4.592662876e-15
4.446694197e-15
4.305715204e-15
4.169540975e-15
4.037994055e-15
3.91090412e-15
3.788107671e-15
3.66944773e-15
3.554773565e-15
3.443940411e-15
3.336809217e-15
3.233246403e-15
3.13312362e-15
3.036317531e-15
2.942709599e-15
2.852185879e-15
2.764636832e-15
2.679957134e-15
2.5980455e-15
2.518804521e-15
2.442140498e-15
2.367963289e-15
2.296186166e-15
2.22672567e-15
2.159501481e-15
2.09443629e-15
2.031455673e-15
1.970487979e-15
1.911464214e-15
1.854317937e-15
1.798985158e-15
1.745404237e-15
1.693515795e-15
1.643262619e-15
1.594589581e-15
1.547443556e-15
1.501773339e-15
1.457529575e-15
1.414664682e-15
1.373132787e-15
1.332889657e-15
1.293892635e-15
1.256100582e-15
1.219473816e-15
1.18397406e-15
1.149564383e-15
1.116209155e-15
1.083873993e-15
1.052525715e-15
1.022132299e-15
9.926628316e-16
9.640874736e-16
9.363774164e-16
9.095048448e-16
8.834428996e-16
8.581656429e-16
8.336480238e-16
8.098658456e-16
7.867957352e-16
7.644151122e-16
7.427021607e-16
7.216358011e-16
7.011956637e-16
6.813620629e-16
6.621159727e-16
6.434390029e-16
6.253133766e-16
6.077219077e-16
5.906479806e-16
5.740755294e-16
5.579890188e-16
5.423734252e-16
5.272142184e-16
5.124973447e-16
4.982092102e-16
4.843366643e-16
4.708669846e-16
4.57787862e-16
4.450873863e-16
4.327540324e-16
4.207766468e-16
4.091444354e-16
3.978469505e-16
3.868740794e-16
3.762160327e-16
3.658633334e-16
3.558068063e-16
3.460375677e-16
3.365470156e-16
3.273268201e-16
3.183689144e-16
3.096654859e-16
3.012089674e-16
2.929920294e-16
2.85007572e-16
2.77248717e-16
2.697088008e-16
2.623813672e-16
2.552601607e-16
2.483391196e-16
2.416123701e-16
2.350742193e-16
2.287191503e-16
2.225418157e-16
2.165370325e-16
2.106997763e-16
2.050251767e-16
1.995085119e-16
1.941452042e-16
1.88930815e-16
1.838610407e-16
1.78931708e-16
1.7413877e-16
1.694783023e-16
1.649464984e-16
1.605396668e-16
1.562542267e-16
1.52086705e-16
1.480337323e-16
1.440920402e-16
1.402584579e-16
1.365299088e-16
1.329034082e-16
1.293760599e-16
1.259450535e-16
1.226076619e-16
1.193612388e-16
1.162032156e-16
1.131310999e-16
1.101424721e-16
1.072349841e-16
1.044063564e-16
1.016543765e-16
9.897689642e-17
9.637183089e-17
9.383715553e-17
9.137090486e-17
8.897117051e-17
8.663609953e-17
8.436389265e-17
8.215280271e-17
8.0001133e-17
7.790723582e-17
7.586951093e-17
7.388640414e-17
7.195640596e-17
7.007805018e-17
6.824991263e-17
6.647060993e-17
6.473879819e-17
6.305317193e-17
6.141246286e-17
5.98154388e-17
5.826090263e-17
5.67476912e-17
5.527467435e-17
5.384075394e-17
5.24448629e-17
5.10859643e-17
4.976305047e-17
4.847514214e-17
4.722128763e-17
4.600056197e-17
4.481206622e-17
4.365492661e-17
4.252829387e-17
4.143134249e-17
4.036327005e-17
3.93232965e-17
3.831066356e-17
3.732463408e-17
3.63644914e-17
3.54295388e-17
3.451909887e-17
3.363251302e-17
3.276914089e-17
3.192835982e-17
3.110956439e-17
3.031216588e-17
2.953559181e-17
2.877928548e-17
2.804270551e-17
2.73253254e-17
2.662663311e-17
2.594613066e-17
2.528333373e-17
2.463777123e-17
2.4008985e-17
2.339652936e-17
2.279997084e-17
2.221888776e-17
2.165286996e-17
2.110151842e-17
2.056444499e-17
2.004127207e-17
1.95316323e-17
1.903516829e-17
1.855153234e-17
1.808038617e-17
1.762140063e-17
1.717425547e-17
1.673863912e-17
1.631424837e-17
1.590078821e-17
1.549797157e-17
1.510551911e-17
1.4723159e-17
1.435062669e-17
1.398766477e-17
1.36340227e-17
1.328945668e-17
1.295372941e-17
1.262660996e-17
1.230787357e-17
1.199730149e-17
1.169468078e-17
1.139980422e-17
1.111247008e-17
1.083248201e-17
1.05596489e-17
1.029378469e-17
1.003470831e-17
9.782243444e-18
9.536218493e-18
9.296466392e-18
9.0628245e-18
8.835134487e-18
8.613242208e-18
8.396997593e-18
8.186254537e-18
7.980870791e-18
7.780707858e-18
7.585630894e-18
7.395508605e-18
7.210213155e-18
7.029620068e-18
6.853608145e-18
6.682059368e-18
6.514858818e-18
6.351894592e-18
6.193057722e-18
6.038242094e-18
5.887344374e-18
5.740263931e-18
5.59690277e-18
5.457165452e-18
5.320959036e-18
5.188193005e-18
5.058779204e-18
4.932631777e-18
4.809667107e-18
4.689803752e-18
4.572962392e-18
4.45906577e-18
4.348038638e-18
4.239807703e-18
4.134301576e-18
4.031450719e-18
3.931187401e-18
3.833445645e-18
3.738161184e-18
3.645271415e-18
3.554715357e-18
3.466433604e-18
3.380368288e-18
3.296463036e-18
3.21466293e-18
3.13491447e-18
3.057165538e-18
2.981365357e-18
2.90746446e-18
2.835414654e-18
2.765168988e-18
2.696681716e-18
2.62990827e-18
2.564805229e-18
2.501330284e-18
2.439442214e-18
2.379100856e-18
2.320267076e-18
2.262902742e-18
2.2069707e-18
2.152434747e-18
2.099259605e-18
2.047410898e-18
1.996855128e-18
1.947559652e-18
1.89949266e-18
1.852623152e-18
1.806920918e-18
1.762356515e-18
1.718901251e-18
1.676527161e-18
1.635206988e-18
1.594914169e-18
1.555622809e-18
1.517307672e-18
1.479944154e-18
1.443508275e-18
1.407976656e-18
1.373326504e-18
1.339535601e-18
1.306582279e-18
1.274445415e-18
1.243104408e-18
1.212539169e-18
1.182730106e-18
1.153658106e-18
1.125304529e-18
1.097651184e-18
1.070680326e-18
1.044374636e-18
1.018717209e-18
9.936915425e-19
9.692815231e-19
9.454714133e-19
9.222458388e-19
8.99589776e-19
8.774885394e-19
8.559277684e-19
8.348934149e-19
8.143717302e-19
7.943492518e-19
7.7481279e-19
7.55749415e-19
7.37146442e-19
7.18991418e-19
7.012721064e-19
6.839764723e-19
6.670926668e-19
6.506090103e-19
6.345139762e-19
6.187961726e-19
6.034443238e-19
5.884472515e-19
5.737938543e-19
5.594730873e-19
5.45473941e-19
5.317854207e-19
5.183965263e-19
5.052962327e-19
4.924734728e-19
4.799171214e-19
4.67615978e-19
4.555587465e-19
4.437339912e-19
4.321300668e-19
4.207349574e-19
4.095359701e-19
3.985191868e-19
3.102119246e-19
2.207026873e-19
1.568361537e-19
1.113197708e-19
7.8915163e-20
5.587169118e-20
3.950460938e-20
2.789400839e-20
1.966823129e-20
1.384829092e-20
9.736212951e-21
6.834939841e-21
4.790921913e-21
3.353000706e-21
2.342989137e-21
1.634641368e-21
1.138637506e-21
7.918743977e-22
5.498369021e-22
3.811703587e-22
2.638244275e-22
1.823167602e-22
1.257943448e-22
8.666185803e-23
5.961270541e-23
4.094562221e-23
2.808341749e-23
1.923466121e-23
1.315623449e-23
8.986978353e-24
6.131339269e-24
4.178141129e-24
2.843972118e-24
1.933802704e-24
1.313636758e-24
8.915544452e-25
6.045945773e-25
4.096942137e-25
2.774411208e-25
1.877733764e-25
1.270241947e-25
8.589447532e-26
5.806403247e-26
3.924177214e-26
2.651703154e-26
1.791720756e-26
1.2106473e-26
8.18083857e-27
5.528913279e-27
3.737403768e-27
2.527041564e-27
1.709180048e-27
1.156415843e-27
7.827181383e-28
5.299960755e-28
3.59023407e-28
2.433093457e-28
1.649604108e-28
1.118872157e-28
7.591921157e-29
5.153233553e-29
3.499025283e-29
2.376464919e-29
1.614382815e-29
1.096836682e-29
7.452519751e-30
5.063506251e-30
3.439885258e-30
2.336330731e-30
1.586251319e-30
1.076472075e-30
7.300771919e-31
4.947760005e-31
3.350097952e-31
2.265934528e-31
1.530759746e-31
1.032672347e-31
6.955642688e-32
4.676836759e-32
3.138530902e-32
2.101731498e-32
1.404173591e-32
9.35777237e-33
6.219383178e-33
4.12155075e-33
2.722880595e-33
1.792952149e-33
1.176523258e-33
7.692123843e-34
5.009927899e-34
3.250016781e-34
2.099629739e-34
1.350647796e-34
8.65025648e-35
5.515119943e-35
3.500086066e-35
2.210886786e-35
1.3899288e-35
8.696399672e-36
5.415000951e-36
3.355595303e-36
2.069479355e-36
1.270251612e-36
7.760322754e-37
4.719130232e-37
2.856750241e-37
1.721670904e-37
1.033085648e-37
6.172631845e-38
3.67272025e-38
2.176293008e-38
1.28433276e-38
7.548735572e-39
4.418732342e-39
2.57585241e-39
1.495196391e-39
8.641009188e-40
4.970909656e-40
2.845846756e-40
1.620973808e-40
9.183404625e-41
5.173269229e-41
2.896916348e-41
1.612177379e-41
8.915353251e-42
4.899460656e-42
2.677032365e-42
1.45612662e-42
7.905879976e-43
4.30727866e-43
2.377971314e-43
1.352746125e-43
8.129465116e-44
5.31444033e-44
3.861023181e-44
3.118466455e-44
2.743353057e-44
2.556235507e-44
2.464293804e-44
2.420011971e-44
2.399320696e-44
2.390156335e-44
2.38653643e-44
2.385525542e-44
2.385698743e-44
2.386372344e-44
2.387223074e-44
2.388101615e-44
2.388942195e-44
2.389719084e-44
2.390425717e-44
2.39106463e-44
2.391642517e-44
2.392167716e-44
2.392648871e-44
2.393094184e-44
2.393510996e-44
2.393905561e-44
2.394282961e-44
2.394647118e-44
2.395000877e-44
2.395346135e-44
2.395684003e-44
2.396014977e-44
2.396339102e-44
2.396656128e-44
2.396965632e-44
2.397267119e-44
2.397560088e-44
2.397844067e-44
2.398118626e-44
2.398383362e-44
2.39863788e-44
2.398881756e-44
2.399114503e-44
2.399335544e-44
2.399544187e-44
2.399739623e-44
2.399920925e-44
2.400087073e-44
2.400236981e-44
2.400369547e-44
2.400483699e-44
2.400578448e-44
2.400652952e-44
2.400706558e-44
2.400738858e-44
2.40074972e-44
2.40073932e-44
2.400708159e-44
2.400657064e-44
2.400587189e-44
2.400499993e-44
2.400397218e-44
2.400280854e-44
2.400153105e-44
2.400016341e-44
2.399873058e-44
2.399725829e-44
2.399577257e-44
2.399429937e-44
2.399286404e-44
2.399149102e-44
2.399020343e-44
2.398902276e-44
2.398796857e-44
2.398705829e-44
2.398630699e-44
2.398572725e-44
2.398532909e-44
2.398511988e-44
2.398510438e-44
2.398528475e-44
2.398566069e-44
2.398622955e-44
2.398698649e-44
2.398792469e-44
2.398903557e-44
2.399030902e-44
2.399173365e-44
2.399329704e-44
2.399498599e-44
2.399678674e-44
2.39986852e-44
2.400066718e-44
2.400271854e-44
2.400482535e-44
2.400697407e-44
2.400915163e-44
2.401134553e-44
2.401354396e-44
2.401573578e-44
2.401791065e-44
2.402005901e-44
2.402217211e-44
2.402424204e-44
2.402626172e-44
2.402822493e-44
2.403012627e-44
2.403196117e-44
2.40337259e-44
2.403541752e-44
2.403703391e-44
2.403857369e-44
2.404003622e-44
2.40414215e-44
2.40427298e-44
2.404395986e-44
2.404509728e-44
2.404603665e-44
)
;

boundaryField
{
    inlet
    {
        type            fixedValue;
        value           uniform 0;
    }
    outlet
    {
        type            zeroGradient;
    }
    wall
    {
        type            empty;
    }
}


// ************************************************************************* //
