/*--------------------------------*- C++ -*----------------------------------*\
  =========                 |
  \\      /  F ield         | OpenFOAM: The Open Source CFD Toolbox
   \\    /   O peration     | Website:  https://openfoam.org
    \\  /    A nd           | Version:  7
     \\/     M anipulation  |
\*---------------------------------------------------------------------------*/
FoamFile
{
    version     2.0;
    format      ascii;
    class       volScalarField;
    location    "0.000558243009";
    object      NC3H7CHO_0;
}
// * * * * * * * * * * * * * * * * * * * * * * * * * * * * * * * * * * * * * //

dimensions      [0 0 0 0 0 0 0];

internalField   nonuniform List<scalar> 
1500
(
5.152856003e-17
2.00770708e-16
4.13172757e-16
6.173976942e-16
7.674039251e-16
8.574479776e-16
9.033755114e-16
9.237685632e-16
9.317867137e-16
9.346158738e-16
9.355217462e-16
9.357874504e-16
9.358594174e-16
9.358775409e-16
9.358818093e-16
9.358827543e-16
9.358829519e-16
9.35882991e-16
9.358829984e-16
9.358829997e-16
9.358829999e-16
9.35883e-16
9.35883e-16
9.35883e-16
9.35883e-16
9.35883e-16
9.35883e-16
9.35883e-16
9.35883e-16
9.35883e-16
9.35883e-16
9.35883e-16
9.35883e-16
9.35883e-16
9.35883e-16
9.35883e-16
9.35883e-16
9.35883e-16
9.35883e-16
9.35883e-16
9.35883e-16
9.35883e-16
9.35883e-16
9.35883e-16
9.35883e-16
9.35883e-16
9.35883e-16
9.35883e-16
9.35883e-16
9.35883e-16
9.35883e-16
9.35883e-16
9.35883e-16
9.35883e-16
9.35883e-16
9.35883e-16
9.35883e-16
9.35883e-16
9.35883e-16
9.35883e-16
9.35883e-16
9.35883e-16
9.35883e-16
9.35883e-16
9.35883e-16
9.35883e-16
9.35883e-16
9.35883e-16
9.35883e-16
9.35883e-16
9.35883e-16
9.35883e-16
9.35883e-16
9.35883e-16
9.35883e-16
9.35883e-16
9.35883e-16
9.35883e-16
9.35883e-16
9.35883e-16
9.35883e-16
9.35883e-16
9.35883e-16
9.35883e-16
9.35883e-16
9.35883e-16
9.35883e-16
9.35883e-16
9.35883e-16
9.35883e-16
9.35883e-16
9.35883e-16
9.35883e-16
9.35883e-16
9.35883e-16
9.35883e-16
9.35883e-16
9.35883e-16
9.35883e-16
9.35883e-16
9.35883e-16
9.35883e-16
9.35883e-16
9.35883e-16
9.35883e-16
9.35883e-16
9.35883e-16
9.35883e-16
9.35883e-16
9.35883e-16
9.35883e-16
9.35883e-16
9.35883e-16
9.35883e-16
9.35883e-16
9.35883e-16
9.35883e-16
9.35883e-16
9.35883e-16
9.35883e-16
9.35883e-16
9.35883e-16
9.35883e-16
9.35883e-16
9.35883e-16
9.35883e-16
9.35883e-16
9.35883e-16
9.35883e-16
9.35883e-16
9.35883e-16
9.35883e-16
9.35883e-16
9.35883e-16
9.35883e-16
9.35883e-16
9.35883e-16
9.35883e-16
9.35883e-16
9.35883e-16
9.35883e-16
9.35883e-16
9.35883e-16
9.35883e-16
9.35883e-16
9.35883e-16
9.35883e-16
9.35883e-16
9.35883e-16
9.35883e-16
9.35883e-16
9.35883e-16
9.35883e-16
9.35883e-16
9.35883e-16
9.35883e-16
9.35883e-16
9.35883e-16
9.35883e-16
9.35883e-16
9.35883e-16
9.35883e-16
9.35883e-16
9.35883e-16
9.35883e-16
9.35883e-16
9.35883e-16
9.35883e-16
9.35883e-16
9.35883e-16
9.35883e-16
9.35883e-16
9.35883e-16
9.35883e-16
9.35883e-16
9.35883e-16
9.35883e-16
9.35883e-16
9.35883e-16
9.35883e-16
9.35883e-16
9.35883e-16
9.35883e-16
9.35883e-16
9.35883e-16
9.35883e-16
9.35883e-16
9.35883e-16
9.35883e-16
9.35883e-16
9.35883e-16
9.35883e-16
9.35883e-16
9.35883e-16
9.35883e-16
9.35883e-16
9.35883e-16
9.35883e-16
9.35883e-16
9.35883e-16
9.35883e-16
9.35883e-16
9.35883e-16
9.35883e-16
9.35883e-16
9.35883e-16
9.35883e-16
9.35883e-16
9.35883e-16
9.35883e-16
9.35883e-16
9.35883e-16
9.35883e-16
9.35883e-16
9.35883e-16
9.35883e-16
9.35883e-16
9.35883e-16
9.35883e-16
9.35883e-16
9.35883e-16
9.35883e-16
9.35883e-16
9.35883e-16
9.35883e-16
9.35883e-16
9.35883e-16
9.35883e-16
9.35883e-16
9.35883e-16
9.35883e-16
9.35883e-16
9.35883e-16
9.35883e-16
9.35883e-16
9.35883e-16
9.358830001e-16
9.358830003e-16
9.358830009e-16
9.358830034e-16
9.358830139e-16
9.358830568e-16
9.358832225e-16
9.358838153e-16
9.358857665e-16
9.358916251e-16
9.359074741e-16
9.35945316e-16
9.360217266e-16
9.361374037e-16
9.361688588e-16
9.361799301e-16
9.361914546e-16
9.362034513e-16
9.362159353e-16
9.362289238e-16
9.362424367e-16
9.362564958e-16
9.362711247e-16
9.362863477e-16
9.363021906e-16
9.363186798e-16
9.363358431e-16
9.363537097e-16
9.363723098e-16
9.363916752e-16
9.364118393e-16
9.364328369e-16
9.364547045e-16
9.364774804e-16
9.365012048e-16
9.365259196e-16
9.365516689e-16
9.36578499e-16
9.366064584e-16
9.36635598e-16
9.366659713e-16
9.366976344e-16
9.367306463e-16
9.367650689e-16
9.368009673e-16
9.368384102e-16
9.368774694e-16
9.369182208e-16
9.369607442e-16
9.370051237e-16
9.370514479e-16
9.370998099e-16
9.371503081e-16
9.372030464e-16
9.372581342e-16
9.373156869e-16
9.373758267e-16
9.374386822e-16
9.375043898e-16
9.375730934e-16
9.376449451e-16
9.377201061e-16
9.377987468e-16
9.378810476e-16
9.379671997e-16
9.380574056e-16
9.381518799e-16
9.382508502e-16
9.383545579e-16
9.38463259e-16
9.385772254e-16
9.386967454e-16
9.388221256e-16
9.389536914e-16
9.390917884e-16
9.392367843e-16
9.393890697e-16
9.395490598e-16
9.397171964e-16
9.398939492e-16
9.40079818e-16
9.402753345e-16
9.404810644e-16
9.406976099e-16
9.409256119e-16
9.411657524e-16
9.414187574e-16
9.416853998e-16
9.419665022e-16
9.422629403e-16
9.425756463e-16
9.429056122e-16
9.432538941e-16
9.436216157e-16
9.440099728e-16
9.444202378e-16
9.448537642e-16
9.453119917e-16
9.457964516e-16
9.463087718e-16
9.46850683e-16
9.474240244e-16
9.480307506e-16
9.486729374e-16
9.493527896e-16
9.500726478e-16
9.508349961e-16
9.5164247e-16
9.524978648e-16
9.534041443e-16
9.543644496e-16
9.553821082e-16
9.564606444e-16
9.576037887e-16
9.588154885e-16
9.600999191e-16
9.614614942e-16
9.629048782e-16
9.644349976e-16
9.660570534e-16
9.677765334e-16
9.695992257e-16
9.715312315e-16
9.735789787e-16
9.75749236e-16
9.78049127e-16
9.804861444e-16
9.830681653e-16
9.858034655e-16
9.887007351e-16
9.917690937e-16
9.950181058e-16
9.984577966e-16
1.002098668e-15
1.005951713e-15
1.010028434e-15
1.014340856e-15
1.018901545e-15
1.023723619e-15
1.028820771e-15
1.034207275e-15
1.03989801e-15
1.045908467e-15
1.05225477e-15
1.058953685e-15
1.066022634e-15
1.073479711e-15
1.081343691e-15
1.089634042e-15
1.098370938e-15
1.107575266e-15
1.117268637e-15
1.127473395e-15
1.138212619e-15
1.149510136e-15
1.161390521e-15
1.173879102e-15
1.187001962e-15
1.200785942e-15
1.215258636e-15
1.230448392e-15
1.24638431e-15
1.263096233e-15
1.280614742e-15
1.298971145e-15
1.318197473e-15
1.338326458e-15
1.359391529e-15
1.381426786e-15
1.404466991e-15
1.42854754e-15
1.453704449e-15
1.479974321e-15
1.507394329e-15
1.536002181e-15
1.565836092e-15
1.596934754e-15
1.6293373e-15
1.663083267e-15
1.698212561e-15
1.734765415e-15
1.772782348e-15
1.812304121e-15
1.853371693e-15
1.896026174e-15
1.940308776e-15
1.986260766e-15
2.033923412e-15
2.083337933e-15
2.134545444e-15
2.187586905e-15
2.242503062e-15
2.299334398e-15
2.358121068e-15
2.418902852e-15
2.481719091e-15
2.546608637e-15
2.613609791e-15
2.682760252e-15
2.754097061e-15
2.827656542e-15
2.903474258e-15
2.981584949e-15
3.062022489e-15
3.144819834e-15
3.230008975e-15
3.317620894e-15
3.407685524e-15
3.500231704e-15
3.59528715e-15
3.692878412e-15
3.793030852e-15
3.895768614e-15
4.001114602e-15
4.109090459e-15
4.219716558e-15
4.333011987e-15
4.448994548e-15
4.567680754e-15
4.689085838e-15
4.813223763e-15
4.940107237e-15
5.069747741e-15
5.202155553e-15
5.337339787e-15
5.475308435e-15
5.616068416e-15
5.759625634e-15
5.905985042e-15
6.055150715e-15
6.207125925e-15
6.361913237e-15
6.519514598e-15
6.679931446e-15
6.843164823e-15
7.009215497e-15
7.178084094e-15
7.349771238e-15
7.524277707e-15
7.701604586e-15
7.881753444e-15
8.064726515e-15
8.250526887e-15
8.439158703e-15
8.630627381e-15
8.824939834e-15
9.022104705e-15
9.222132618e-15
9.425036436e-15
9.630831534e-15
9.83953608e-15
1.005117133e-14
1.026576196e-14
1.048333634e-14
1.070392691e-14
1.092757053e-14
1.115430882e-14
1.138418854e-14
1.1617262e-14
1.185358744e-14
1.209322948e-14
1.233625952e-14
1.25827562e-14
1.28328059e-14
1.308650316e-14
1.334395123e-14
1.360526253e-14
1.387055924e-14
1.413997379e-14
1.441364945e-14
1.469174089e-14
1.497441481e-14
1.526185049e-14
1.555424051e-14
1.58517913e-14
1.615472391e-14
1.646327468e-14
1.677769581e-14
1.709825644e-14
1.742524312e-14
1.775896051e-14
1.809973235e-14
1.84479022e-14
1.880383433e-14
1.91679146e-14
1.954055128e-14
1.992217603e-14
2.031324476e-14
2.071423859e-14
2.112566481e-14
2.154805785e-14
2.198198033e-14
2.242802395e-14
2.288681078e-14
2.335899425e-14
2.384526043e-14
2.434632906e-14
2.4862955e-14
2.539592948e-14
2.594608116e-14
2.65142776e-14
2.710142664e-14
2.770847791e-14
2.83364243e-14
2.898630353e-14
2.965919976e-14
3.035624527e-14
3.107862223e-14
3.182756452e-14
3.260435964e-14
3.341035071e-14
3.424693853e-14
3.511558381e-14
3.601780941e-14
3.69552028e-14
3.792941852e-14
3.894218088e-14
3.999528677e-14
4.109060858e-14
4.223009736e-14
4.341578609e-14
4.464979325e-14
4.593432649e-14
4.727168666e-14
4.866427206e-14
5.011458299e-14
5.162522668e-14
5.319892263e-14
5.483850838e-14
5.654694583e-14
5.832732819e-14
6.01828877e-14
6.21170042e-14
6.413321479e-14
6.623522479e-14
6.842692024e-14
7.071238243e-14
7.309590472e-14
7.558201234e-14
7.817548596e-14
8.088138978e-14
8.370510541e-14
8.665237305e-14
8.972934171e-14
9.294263105e-14
9.629940765e-14
9.980747971e-14
1.03475415e-13
1.073126882e-13
1.113298659e-13
1.155388381e-13
1.199531111e-13
1.245881752e-13
1.2946197e-13
1.345954727e-13
1.400134414e-13
1.457453573e-13
1.518266184e-13
1.583000527e-13
1.652178369e-13
1.726439314e-13
1.806571699e-13
1.89355181e-13
1.988593673e-13
2.093212262e-13
2.209303769e-13
2.339247535e-13
2.486035498e-13
2.653436583e-13
2.846205495e-13
3.070347877e-13
3.333457068e-13
3.645141797e-13
4.01756933e-13
4.466155245e-13
5.010439389e-13
5.675198208e-13
6.491857212e-13
7.500284447e-13
8.751067666e-13
1.030840548e-12
1.225377782e-12
1.469060553e-12
1.775016522e-12
2.159909694e-12
2.644893304e-12
3.256819117e-12
4.029772012e-12
5.007017161e-12
6.243470455e-12
7.808832439e-12
9.791563452e-12
1.230392505e-11
1.548837282e-11
1.952566129e-11
2.464511792e-11
3.113766353e-11
3.937231003e-11
4.981705865e-11
6.306536512e-11
7.986964438e-11
1.011836727e-10
1.282162294e-10
1.624989289e-10
2.059719552e-10
2.61092368e-10
3.3097084e-10
4.195441765e-10
5.317928202e-10
6.740148448e-10
8.541707924e-10
1.082317225e-09
1.371151189e-09
1.73669309e-09
2.199141942e-09
2.783944782e-09
3.523131508e-09
4.456977689e-09
5.636071343e-09
7.123875462e-09
8.999896429e-09
1.136358958e-08
1.433915691e-08
1.808141848e-08
2.278296726e-08
2.868284748e-08
3.607702602e-08
4.533095512e-08
5.689454818e-08
7.131990733e-08
8.928214648e-08
1.116036423e-07
1.39282014e-07
1.73522074e-07
2.157719038e-07
2.677630876e-07
3.315549803e-07
4.095827038e-07
5.047083556e-07
6.202746995e-07
7.601603953e-07
9.288356478e-07
1.131417017e-06
1.37372008e-06
1.662308644e-06
2.004539343e-06
2.408600631e-06
2.883545465e-06
3.439317269e-06
4.086769129e-06
4.837676465e-06
5.704743865e-06
6.701606989e-06
7.842831472e-06
9.143909863e-06
1.062126058e-05
1.229223155e-05
1.417511419e-05
1.628917616e-05
1.865472603e-05
2.129322944e-05
2.422559472e-05
2.748053201e-05
3.107214853e-05
3.505827912e-05
3.946451985e-05
4.431600829e-05
4.943261247e-05
5.480660421e-05
6.0188743e-05
6.510899563e-05
6.890944851e-05
7.101226225e-05
7.128089322e-05
7.006152898e-05
6.782907194e-05
6.493705865e-05
6.159649588e-05
5.786083202e-05
5.395852181e-05
4.987881658e-05
4.566651065e-05
4.131236679e-05
3.699723113e-05
3.272565069e-05
2.85588044e-05
2.455538707e-05
2.07939667e-05
1.733000335e-05
1.420807716e-05
1.14579103e-05
9.091524695e-06
7.102926925e-06
5.46377098e-06
4.152704337e-06
3.11532096e-06
2.318662418e-06
1.712659753e-06
1.257654514e-06
9.196942912e-07
6.708797247e-07
4.876210194e-07
3.526766361e-07
2.547594359e-07
1.839213445e-07
1.327647592e-07
9.588421323e-08
6.930047661e-08
5.014670773e-08
3.632766257e-08
2.634181504e-08
1.922271848e-08
1.405006216e-08
1.025427231e-08
7.498837242e-09
5.493727833e-09
4.031255898e-09
2.962388499e-09
2.179803843e-09
1.606223132e-09
1.184852449e-09
8.7506149e-10
6.470242723e-10
4.789666112e-10
3.549683092e-10
2.633734729e-10
1.956374898e-10
1.454889744e-10
1.083196072e-10
8.073924423e-11
6.025109319e-11
4.501426527e-11
3.366998149e-11
2.521422204e-11
1.890430105e-11
1.419025275e-11
1.066438409e-11
8.024144193e-12
6.044765951e-12
4.559086971e-12
3.442650252e-12
2.602691921e-12
1.969993571e-12
1.492847863e-12
1.132584696e-12
8.602509329e-13
6.54143695e-13
4.979758654e-13
3.795103198e-13
2.895420311e-13
2.211386138e-13
1.690730666e-13
1.293995975e-13
9.913608338e-14
7.602608268e-14
5.836026617e-14
4.484227338e-14
3.448782485e-14
2.654875591e-14
2.045574873e-14
1.577510925e-14
1.217610647e-14
9.406264092e-15
7.272646797e-15
5.627670533e-15
4.358331023e-15
3.37801801e-15
2.620287717e-15
2.034120021e-15
1.580302549e-15
1.228671124e-15
9.560016092e-16
7.443978148e-16
5.800575412e-16
4.523271798e-16
3.529767185e-16
2.756432685e-16
2.15403561e-16
1.684452383e-16
1.318138928e-16
1.032182358e-16
8.087991375e-17
6.341764671e-17
4.97577743e-17
3.906513494e-17
3.068961546e-17
2.412478637e-17
1.897586577e-17
1.493488938e-17
1.176145139e-17
9.267755226e-18
7.307001237e-18
5.76435989e-18
4.549949795e-18
3.593371374e-18
2.839448544e-18
2.244909153e-18
1.775795415e-18
1.405442439e-18
1.11289916e-18
8.816940211e-19
6.988695052e-19
5.542264671e-19
4.397322887e-19
3.490570511e-19
2.77209803e-19
2.20253148e-19
1.750791497e-19
1.392332758e-19
1.107759999e-19
8.81739423e-20
7.021419694e-20
5.59368657e-20
4.458190198e-20
3.554720495e-20
2.835556512e-20
2.262857775e-20
1.806604418e-20
1.442969824e-20
1.153034273e-20
9.217676452e-21
7.372244785e-21
5.899067539e-21
4.722592017e-21
3.782693805e-21
3.031506276e-21
2.430905896e-21
1.950516773e-21
1.566126512e-21
1.258428026e-21
1.012019806e-21
8.146112041e-22
6.56390413e-22
5.295216355e-22
4.277448583e-22
3.460571692e-22
2.804589003e-22
2.277513303e-22
1.853754111e-22
1.512831506e-22
1.238349993e-22
1.017179546e-22
8.388017385e-23
6.94787518e-23
5.783799521e-23
4.841607446e-23
4.077836054e-23
3.457610024e-23
2.952935499e-23
2.541334654e-23
2.204752559e-23
1.928681767e-23
1.701461031e-23
1.513713352e-23
1.357895535e-23
1.227937012e-23
1.118950164e-23
1.026997922e-23
9.489072529e-24
8.821194407e-24
8.245698683e-24
7.745914528e-24
7.308370654e-24
6.92217182e-24
6.578497624e-24
6.270199468e-24
5.991476389e-24
5.737614228e-24
5.504775722e-24
5.289831516e-24
5.090224069e-24
4.90385804e-24
4.729011943e-24
4.564266944e-24
4.408449441e-24
4.260584748e-24
4.119859709e-24
3.985592527e-24
3.85720838e-24
3.734219727e-24
3.616210372e-24
3.502822583e-24
3.393746647e-24
3.28871242e-24
3.187482465e-24
3.089846484e-24
2.995616793e-24
2.904624638e-24
2.816717195e-24
2.731755118e-24
2.649610534e-24
2.570165402e-24
2.493310162e-24
2.418942621e-24
2.346967038e-24
2.277293356e-24
2.20983657e-24
2.144516193e-24
2.081255814e-24
2.019982714e-24
1.960627551e-24
1.903124085e-24
1.847408936e-24
1.793421389e-24
1.741103208e-24
1.690398482e-24
1.641253485e-24
1.593616555e-24
1.54743798e-24
1.502669899e-24
1.45926621e-24
1.417182487e-24
1.376375901e-24
1.336805154e-24
1.298430407e-24
1.261213222e-24
1.2251165e-24
1.190104434e-24
1.156142449e-24
1.123197161e-24
1.091236326e-24
1.060228799e-24
1.030144489e-24
1.000954326e-24
9.726302168e-25
9.451450105e-25
9.184724661e-25
8.925872177e-25
8.674647431e-25
8.430813336e-25
8.194140646e-25
7.96440768e-25
7.741400051e-25
7.524910409e-25
7.314738195e-25
7.110689396e-25
6.912576326e-25
6.720217397e-25
6.53343691e-25
6.352064853e-25
6.175936701e-25
6.00489323e-25
5.838780333e-25
5.677448844e-25
5.520754371e-25
5.368557134e-25
5.220721806e-25
5.077117362e-25
4.937616935e-25
4.802097676e-25
4.670440617e-25
4.542530541e-25
4.418255858e-25
4.297508482e-25
4.180183716e-25
4.066180137e-25
3.955399489e-25
3.847746576e-25
3.743129166e-25
3.641457887e-25
3.542646137e-25
3.446609991e-25
3.353268116e-25
3.262541681e-25
3.174354284e-25
3.088631863e-25
3.005302629e-25
2.924296985e-25
2.84554746e-25
2.76898864e-25
2.694557099e-25
2.622191337e-25
2.551831718e-25
2.483420412e-25
2.416901333e-25
2.352220088e-25
2.289323922e-25
2.228161663e-25
2.168683676e-25
2.110841812e-25
2.054589362e-25
1.999881009e-25
1.946672792e-25
1.894922052e-25
1.8445874e-25
1.795628676e-25
1.748006907e-25
1.701684273e-25
1.656624071e-25
1.612790678e-25
1.570149521e-25
1.528667043e-25
1.488310671e-25
1.449048787e-25
1.410850695e-25
1.3736866e-25
1.337527572e-25
1.302345526e-25
1.268113193e-25
1.234804095e-25
1.202392524e-25
1.170853514e-25
1.140162822e-25
1.110296905e-25
1.081232899e-25
1.052948598e-25
1.025422434e-25
9.986334601e-26
9.725613288e-26
9.471862754e-26
9.22489101e-26
8.984511548e-26
8.750543181e-26
8.522809884e-26
8.301140641e-26
8.085369297e-26
7.875334411e-26
7.670879119e-26
7.471850996e-26
7.278101931e-26
7.089487991e-26
6.905869307e-26
6.727109948e-26
6.553077808e-26
6.383644496e-26
6.218685221e-26
6.058078695e-26
5.901707026e-26
5.749455618e-26
5.601213079e-26
5.456871125e-26
5.316324491e-26
5.179470844e-26
5.046210697e-26
4.916447327e-26
4.790086695e-26
4.667037372e-26
4.547210459e-26
4.430519516e-26
4.316880493e-26
4.206211661e-26
4.098433543e-26
3.993468854e-26
3.891242434e-26
3.79168119e-26
3.694714038e-26
3.600271842e-26
3.508287364e-26
3.418695204e-26
3.331431753e-26
3.246435142e-26
3.163645187e-26
3.08300335e-26
3.004452686e-26
2.927937801e-26
2.853404808e-26
2.780801284e-26
2.710076229e-26
2.641180028e-26
2.574064409e-26
2.508682408e-26
2.444988331e-26
2.38293772e-26
2.322487316e-26
2.263595028e-26
2.2062199e-26
2.15032208e-26
2.095862786e-26
2.042804282e-26
1.991109843e-26
1.940743732e-26
1.891671169e-26
1.843858308e-26
1.797272207e-26
1.751880808e-26
1.707652908e-26
1.66455814e-26
1.622566944e-26
1.581650553e-26
1.541780962e-26
1.502930917e-26
1.465073884e-26
1.428184039e-26
1.392236242e-26
1.357206021e-26
1.323069553e-26
1.289803647e-26
1.257385728e-26
1.225793815e-26
1.195006512e-26
1.165002987e-26
1.135762959e-26
1.107266682e-26
1.079494932e-26
1.052428991e-26
1.026050634e-26
1.000342116e-26
9.752861601e-27
9.508659419e-27
9.270650804e-27
9.038676242e-27
8.812580407e-27
8.592212047e-27
8.377423875e-27
8.168072461e-27
7.96401813e-27
7.765124861e-27
7.571260191e-27
7.382295115e-27
7.198104001e-27
7.018564491e-27
6.843557424e-27
6.672966739e-27
6.506679404e-27
6.344585327e-27
6.186577281e-27
6.032550829e-27
5.882404248e-27
5.736038455e-27
5.593356944e-27
5.454265709e-27
5.318673184e-27
5.186490175e-27
5.057629801e-27
4.932007428e-27
4.809540612e-27
4.690149043e-27
4.573754485e-27
4.460280725e-27
4.349653515e-27
4.241800527e-27
4.136651296e-27
4.034137173e-27
3.93419128e-27
3.836748458e-27
3.741745229e-27
3.649119745e-27
3.558811749e-27
3.470762532e-27
3.384914893e-27
3.3012131e-27
3.219602848e-27
3.140031227e-27
3.062446682e-27
2.986798978e-27
2.913039164e-27
2.841119544e-27
2.770993639e-27
2.702616157e-27
2.635942963e-27
2.570931048e-27
2.507538497e-27
2.445724465e-27
2.385449145e-27
2.326673742e-27
2.269360446e-27
2.213472407e-27
2.158973709e-27
2.105829345e-27
2.054005192e-27
2.003467991e-27
1.95418532e-27
1.906125572e-27
1.859257937e-27
1.813552375e-27
1.768979601e-27
1.725511057e-27
1.683118899e-27
1.641775974e-27
1.601455802e-27
1.562132553e-27
1.523781035e-27
1.48637667e-27
1.449895479e-27
1.414314065e-27
1.37960959e-27
1.345759767e-27
1.312742832e-27
1.280537535e-27
1.249123121e-27
1.218479313e-27
1.188586291e-27
1.159424685e-27
1.130975546e-27
1.103220341e-27
1.076140926e-27
1.049719535e-27
1.02393876e-27
9.987815351e-28
9.742311153e-28
9.502710616e-28
9.268852205e-28
9.040577054e-28
8.817728768e-28
8.600153222e-28
8.387698362e-28
8.180213992e-28
7.977551567e-28
7.779563985e-28
7.586105375e-28
7.397030906e-28
7.212196596e-28
7.031459149e-28
6.85467582e-28
6.681704323e-28
6.512402769e-28
6.346629656e-28
6.184243857e-28
6.025104565e-28
5.869071002e-28
5.716001772e-28
5.565753243e-28
5.418176365e-28
5.273110811e-28
4.111463777e-28
2.924604417e-28
2.080211183e-28
1.478388891e-28
1.049591351e-28
7.443444167e-29
5.272692231e-29
3.730623335e-29
2.636381577e-29
1.860808554e-29
1.311751666e-29
9.235262408e-30
6.493622404e-30
4.559937501e-30
3.197865928e-30
2.239691159e-30
1.566539152e-30
1.094258928e-30
7.633558217e-31
5.318219069e-31
3.700359128e-31
2.571390626e-31
1.784632509e-31
1.237080851e-31
8.565047259e-32
5.923243466e-32
4.091712067e-32
2.82348507e-32
1.94635365e-32
1.340405835e-32
9.222591911e-33
6.340112224e-33
4.355062591e-33
2.989321128e-33
2.050498273e-33
1.40567022e-33
9.631048147e-34
6.595667078e-34
4.515105046e-34
3.089793825e-34
2.113837312e-34
1.445843093e-34
9.887904474e-35
6.761539394e-35
4.62346854e-35
3.161498383e-35
2.161922244e-35
1.478514592e-35
1.011266153e-35
6.917850773e-36
4.733124266e-36
3.238968971e-36
2.216903996e-36
1.517682119e-36
1.039184607e-36
7.116918188e-37
4.874250909e-37
3.338977883e-37
2.287471536e-37
1.567360665e-37
1.073637789e-37
7.356415431e-38
5.038585833e-38
3.450700538e-38
2.362069421e-38
1.617208296e-38
1.106381241e-38
7.563673563e-39
5.16539235e-39
3.528512545e-39
2.409538969e-39
1.634131275e-39
1.109231067e-39
7.57886742e-40
5.155100138e-40
3.432920249e-40
2.323908333e-40
1.555006007e-40
1.06565489e-40
6.747096156e-41
4.645668e-41
3.281495463e-41
2.161714882e-41
1.133437417e-41
1.194053679e-41
3.038393739e-42
3.932683943e-42
3.167720013e-42
2.044112893e-42
8.822590465e-43
2.731845042e-43
1.152194248e-42
1.064229022e-42
5.881305719e-44
1.192589948e-44
4.082511207e-44
5.544555351e-44
0
1.145129398e-43
2.924998709e-43
1.263764261e-43
2.64636892e-45
2.724395683e-44
8.280792885e-44
3.208864626e-44
1.083244497e-43
1.03006666e-43
5.747176614e-44
3.564762569e-44
4.690586712e-44
3.618155974e-44
9.520132786e-44
2.578133584e-44
1.700418189e-44
1.524305152e-43
1.47779271e-43
6.54546191e-44
2.02668779e-44
1.57834025e-44
1.074023646e-43
7.250665397e-44
1.96318774e-45
6.652900879e-44
8.390389055e-44
5.448417601e-44
1.217948265e-43
1.059726285e-43
1.677922578e-44
2.436014592e-44
3.236331621e-44
1.799776594e-45
1.522294995e-44
1.985309309e-43
1.134626788e-43
3.229917546e-43
7.435017124e-44
1.4449892e-43
4.245335923e-44
1.462863335e-45
1.695119391e-43
1.237295139e-43
3.061637645e-45
2.716448756e-43
5.985299482e-44
0
4.85762421e-44
7.156370936e-44
0
3.419454191e-43
1.663555265e-43
9.656978962e-44
4.016551897e-45
1.305924373e-43
1.445832823e-43
1.977421137e-43
2.383644129e-45
1.316500522e-44
1.159293038e-43
2.170308472e-43
2.626427201e-43
3.188712244e-43
0
0
1.843356267e-43
1.16508469e-45
6.621387656e-46
5.662866742e-44
4.775368016e-43
1.111697e-44
8.607838975e-44
2.176585269e-43
2.025157538e-43
0
4.48780148e-44
0
6.518360271e-44
0
8.893049054e-44
3.770405651e-44
1.367083251e-43
1.110459565e-43
1.684322769e-43
4.787755663e-44
7.465711122e-44
2.381141378e-43
3.577424289e-43
1.169278101e-45
0
1.648898543e-44
8.385522251e-44
4.091874655e-43
0
3.214392735e-43
2.794675375e-43
2.437337807e-43
9.495261918e-44
4.930021078e-45
8.575307066e-46
2.856352748e-43
3.299537881e-45
5.887780438e-44
9.181926249e-46
2.1500896e-44
6.099937199e-46
2.041998365e-43
5.950813172e-44
0
0
8.220889909e-44
7.521035505e-45
6.102895631e-44
8.358218269e-44
0
0
6.473509677e-44
0
8.664791411e-44
2.190062768e-44
2.150808823e-46
9.348607376e-44
1.063484803e-43
2.398312461e-45
0
2.294707306e-44
8.894749214e-47
2.369919404e-44
1.048050562e-43
1.795391995e-43
0
8.96234343e-44
2.392415123e-43
3.485459937e-44
3.109362737e-44
1.171455568e-43
6.347829631e-44
6.500715977e-44
1.936946906e-44
1.982194185e-43
2.245796667e-43
3.624769705e-45
0
6.993117221e-45
1.68405428e-43
2.138634907e-45
1.090404613e-43
8.975846597e-44
1.156823802e-43
4.019667242e-45
6.200172664e-46
1.250633017e-43
)
;

boundaryField
{
    inlet
    {
        type            fixedValue;
        value           uniform 0;
    }
    outlet
    {
        type            zeroGradient;
    }
    wall
    {
        type            empty;
    }
}


// ************************************************************************* //
