/*--------------------------------*- C++ -*----------------------------------*\
  =========                 |
  \\      /  F ield         | OpenFOAM: The Open Source CFD Toolbox
   \\    /   O peration     | Website:  https://openfoam.org
    \\  /    A nd           | Version:  7
     \\/     M anipulation  |
\*---------------------------------------------------------------------------*/
FoamFile
{
    version     2.0;
    format      ascii;
    class       volScalarField;
    location    "0.000558243009";
    object      NC7KET_0;
}
// * * * * * * * * * * * * * * * * * * * * * * * * * * * * * * * * * * * * * //

dimensions      [0 0 0 0 0 0 0];

internalField   nonuniform List<scalar> 
1500
(
1.647495092e-19
6.396304671e-19
1.313461211e-18
1.956310996e-18
2.423696502e-18
2.701025765e-18
2.84073208e-18
2.901962492e-18
2.925714728e-18
2.933980373e-18
2.936589811e-18
2.937344261e-18
2.937545645e-18
2.937595616e-18
2.93760721e-18
2.937609738e-18
2.937610259e-18
2.93761036e-18
2.937610379e-18
2.937610383e-18
2.937610383e-18
2.937610383e-18
2.937610383e-18
2.937610383e-18
2.937610383e-18
2.937610383e-18
2.937610383e-18
2.937610383e-18
2.937610383e-18
2.937610383e-18
2.937610383e-18
2.937610383e-18
2.937610383e-18
2.937610383e-18
2.937610383e-18
2.937610383e-18
2.937610383e-18
2.937610383e-18
2.937610383e-18
2.937610383e-18
2.937610383e-18
2.937610383e-18
2.937610383e-18
2.937610383e-18
2.937610383e-18
2.937610383e-18
2.937610383e-18
2.937610383e-18
2.937610383e-18
2.937610383e-18
2.937610383e-18
2.937610383e-18
2.937610383e-18
2.937610383e-18
2.937610383e-18
2.937610383e-18
2.937610383e-18
2.937610383e-18
2.937610383e-18
2.937610383e-18
2.937610383e-18
2.937610383e-18
2.937610383e-18
2.937610383e-18
2.937610383e-18
2.937610383e-18
2.937610383e-18
2.937610383e-18
2.937610383e-18
2.937610383e-18
2.937610383e-18
2.937610383e-18
2.937610383e-18
2.937610383e-18
2.937610383e-18
2.937610383e-18
2.937610383e-18
2.937610383e-18
2.937610383e-18
2.937610383e-18
2.937610383e-18
2.937610383e-18
2.937610383e-18
2.937610383e-18
2.937610383e-18
2.937610383e-18
2.937610383e-18
2.937610383e-18
2.937610383e-18
2.937610383e-18
2.937610383e-18
2.937610383e-18
2.937610383e-18
2.937610383e-18
2.937610383e-18
2.937610383e-18
2.937610383e-18
2.937610383e-18
2.937610383e-18
2.937610383e-18
2.937610383e-18
2.937610383e-18
2.937610383e-18
2.937610383e-18
2.937610383e-18
2.937610383e-18
2.937610383e-18
2.937610383e-18
2.937610383e-18
2.937610383e-18
2.937610383e-18
2.937610383e-18
2.937610383e-18
2.937610383e-18
2.937610383e-18
2.937610383e-18
2.937610383e-18
2.937610383e-18
2.937610383e-18
2.937610383e-18
2.937610383e-18
2.937610383e-18
2.937610383e-18
2.937610383e-18
2.937610383e-18
2.937610383e-18
2.937610383e-18
2.937610383e-18
2.937610383e-18
2.937610383e-18
2.937610383e-18
2.937610383e-18
2.937610383e-18
2.937610383e-18
2.937610383e-18
2.937610383e-18
2.937610383e-18
2.937610383e-18
2.937610383e-18
2.937610383e-18
2.937610383e-18
2.937610383e-18
2.937610383e-18
2.937610383e-18
2.937610383e-18
2.937610383e-18
2.937610383e-18
2.937610383e-18
2.937610383e-18
2.937610383e-18
2.937610383e-18
2.937610383e-18
2.937610383e-18
2.937610383e-18
2.937610383e-18
2.937610383e-18
2.937610383e-18
2.937610383e-18
2.937610383e-18
2.937610383e-18
2.937610383e-18
2.937610383e-18
2.937610383e-18
2.937610383e-18
2.937610383e-18
2.937610383e-18
2.937610383e-18
2.937610383e-18
2.937610383e-18
2.937610383e-18
2.937610383e-18
2.937610383e-18
2.937610383e-18
2.937610383e-18
2.937610383e-18
2.937610383e-18
2.937610383e-18
2.937610383e-18
2.937610383e-18
2.937610383e-18
2.937610383e-18
2.937610383e-18
2.937610383e-18
2.937610383e-18
2.937610383e-18
2.937610383e-18
2.937610383e-18
2.937610383e-18
2.937610383e-18
2.937610383e-18
2.937610383e-18
2.937610383e-18
2.937610383e-18
2.937610383e-18
2.937610383e-18
2.937610383e-18
2.937610383e-18
2.937610383e-18
2.937610383e-18
2.937610383e-18
2.937610383e-18
2.937610383e-18
2.937610383e-18
2.937610383e-18
2.937610383e-18
2.937610383e-18
2.937610383e-18
2.937610383e-18
2.937610383e-18
2.937610383e-18
2.937610383e-18
2.937610383e-18
2.937610383e-18
2.937610383e-18
2.937610383e-18
2.937610383e-18
2.937610383e-18
2.937610383e-18
2.937610383e-18
2.937610383e-18
2.937610383e-18
2.937610383e-18
2.937610383e-18
2.937610383e-18
2.937610383e-18
2.937610383e-18
2.937610383e-18
2.937610383e-18
2.937610383e-18
2.937610383e-18
2.937610383e-18
2.937610383e-18
2.937610383e-18
2.937610384e-18
2.937610384e-18
2.937610384e-18
2.937610384e-18
2.937610384e-18
2.937610385e-18
2.937610386e-18
2.93761039e-18
2.937610404e-18
2.937610472e-18
2.93761078e-18
2.937612095e-18
2.937617187e-18
2.937634764e-18
2.937687514e-18
2.93781868e-18
2.938053665e-18
2.938101352e-18
2.938122275e-18
2.93814413e-18
2.938166953e-18
2.938190776e-18
2.938215639e-18
2.938241586e-18
2.938268669e-18
2.938296937e-18
2.938326444e-18
2.938357247e-18
2.938389403e-18
2.938422973e-18
2.938458022e-18
2.938494616e-18
2.938532825e-18
2.938572722e-18
2.938614384e-18
2.93865789e-18
2.938703325e-18
2.938750778e-18
2.938800339e-18
2.938852105e-18
2.938906178e-18
2.938962664e-18
2.939021672e-18
2.939083319e-18
2.939147728e-18
2.939215024e-18
2.939285343e-18
2.939358824e-18
2.939435615e-18
2.939515868e-18
2.939599745e-18
2.939687417e-18
2.939779059e-18
2.93987486e-18
2.939975013e-18
2.940079725e-18
2.94018921e-18
2.940303694e-18
2.940423414e-18
2.94054862e-18
2.940679573e-18
2.940816547e-18
2.940959831e-18
2.941109729e-18
2.941266558e-18
2.941430654e-18
2.941602369e-18
2.941782074e-18
2.941970157e-18
2.94216703e-18
2.942373124e-18
2.942588892e-18
2.942814814e-18
2.943051394e-18
2.943299162e-18
2.943558679e-18
2.943830535e-18
2.944115352e-18
2.944413788e-18
2.944726536e-18
2.945054329e-18
2.94539794e-18
2.945758187e-18
2.946135935e-18
2.946532098e-18
2.946947643e-18
2.947383596e-18
2.947841042e-18
2.948321129e-18
2.948825079e-18
2.949354183e-18
2.949909814e-18
2.95049343e-18
2.951106579e-18
2.951750906e-18
2.952428162e-18
2.953140207e-18
2.953889024e-18
2.954676725e-18
2.955505559e-18
2.956377923e-18
2.957296378e-18
2.958263652e-18
2.959282661e-18
2.960356519e-18
2.961488553e-18
2.962682321e-18
2.963941628e-18
2.965270545e-18
2.966673428e-18
2.968154945e-18
2.96972009e-18
2.971374218e-18
2.973123064e-18
2.974972778e-18
2.97692995e-18
2.97900165e-18
2.981195455e-18
2.983519495e-18
2.985982489e-18
2.988593789e-18
2.991363425e-18
2.994302158e-18
2.997421527e-18
3.000733908e-18
3.00425257e-18
3.007991742e-18
3.011966673e-18
3.016193707e-18
3.020690354e-18
3.02547537e-18
3.030568836e-18
3.035992248e-18
3.041768606e-18
3.047922506e-18
3.054480248e-18
3.06146993e-18
3.068921566e-18
3.076867193e-18
3.085340993e-18
3.094379413e-18
3.104021293e-18
3.114308001e-18
3.125283561e-18
3.136994803e-18
3.149491498e-18
3.162826512e-18
3.177055954e-18
3.192239332e-18
3.208439712e-18
3.225723872e-18
3.244162472e-18
3.263830211e-18
3.284805997e-18
3.307173107e-18
3.331019356e-18
3.356437262e-18
3.383524205e-18
3.412382591e-18
3.44312001e-18
3.47584939e-18
3.510689145e-18
3.547763319e-18
3.587201726e-18
3.629140077e-18
3.673720104e-18
3.721089666e-18
3.771402859e-18
3.824820097e-18
3.881508192e-18
3.941640418e-18
4.005396555e-18
4.072962922e-18
4.144532392e-18
4.220304385e-18
4.300484849e-18
4.38528621e-18
4.474927314e-18
4.569633332e-18
4.669635657e-18
4.775171764e-18
4.886485058e-18
5.003824682e-18
5.127445316e-18
5.257606939e-18
5.394574563e-18
5.538617955e-18
5.690011312e-18
5.84903293e-18
6.015964829e-18
6.191092364e-18
6.374703809e-18
6.567089908e-18
6.768543412e-18
6.979358587e-18
7.199830704e-18
7.430255504e-18
7.670928645e-18
7.922145134e-18
8.18419874e-18
8.45738139e-18
8.741982559e-18
9.038288646e-18
9.34658234e-18
9.667141981e-18
1.000024092e-17
1.034614689e-17
1.070512132e-17
1.107741876e-17
1.14632862e-17
1.186296247e-17
1.227667762e-17
1.270465237e-17
1.314709744e-17
1.360421309e-17
1.407618854e-17
1.456320145e-17
1.506541748e-17
1.55829898e-17
1.611605872e-17
1.666475125e-17
1.722918082e-17
1.780944692e-17
1.84056349e-17
1.901781569e-17
1.964604568e-17
2.029036655e-17
2.095080525e-17
2.162737392e-17
2.232006995e-17
2.302887603e-17
2.375376029e-17
2.449467653e-17
2.525156435e-17
2.602434957e-17
2.681294448e-17
2.761724829e-17
2.843714757e-17
2.92725168e-17
3.012321888e-17
3.098910581e-17
3.187001937e-17
3.276579182e-17
3.367624674e-17
3.460119985e-17
3.554045995e-17
3.649382986e-17
3.746110747e-17
3.844208679e-17
3.943655915e-17
4.044431433e-17
4.146514187e-17
4.249883241e-17
4.354517903e-17
4.460397877e-17
4.567503411e-17
4.675815459e-17
4.78531585e-17
4.895987461e-17
5.0078144e-17
5.120782201e-17
5.234878021e-17
5.350090855e-17
5.466411753e-17
5.58383405e-17
5.702353612e-17
5.821969087e-17
5.942682169e-17
6.064497881e-17
6.187424865e-17
6.311475685e-17
6.436667157e-17
6.563020676e-17
6.690562579e-17
6.819324509e-17
6.949343807e-17
7.080663919e-17
7.213334822e-17
7.347413476e-17
7.482964312e-17
7.620059672e-17
7.75878047e-17
7.899216586e-17
8.041467425e-17
8.185642558e-17
8.33186233e-17
8.480258503e-17
8.63097493e-17
8.784168234e-17
8.940008532e-17
9.098680161e-17
9.260382441e-17
9.425330446e-17
9.593755808e-17
9.765907556e-17
9.942052915e-17
1.012247824e-16
1.030748989e-16
1.049741519e-16
1.069260334e-16
1.089342646e-16
1.110028058e-16
1.131358652e-16
1.153379098e-16
1.17613676e-16
1.199681804e-16
1.224067298e-16
1.24934933e-16
1.27558711e-16
1.302843087e-16
1.331183059e-16
1.360676291e-16
1.391395626e-16
1.423417603e-16
1.456822579e-16
1.491694846e-16
1.528122754e-16
1.566198835e-16
1.606019931e-16
1.64768732e-16
1.691306852e-16
1.736989085e-16
1.784849423e-16
1.835008264e-16
1.887591152e-16
1.942728935e-16
2.00055793e-16
2.061220099e-16
2.124863238e-16
2.191641166e-16
2.261713945e-16
2.335248098e-16
2.412416852e-16
2.4934004e-16
2.578386182e-16
2.667569184e-16
2.761152274e-16
2.859346553e-16
2.962371741e-16
3.070456604e-16
3.183839404e-16
3.302768397e-16
3.427502371e-16
3.558311231e-16
3.695476634e-16
3.839292671e-16
3.99006662e-16
4.148119746e-16
4.313788179e-16
4.487423857e-16
4.669395546e-16
4.860089954e-16
5.059912924e-16
5.269290744e-16
5.488671557e-16
5.718526921e-16
5.959353509e-16
6.211675008e-16
6.476044233e-16
6.753045538e-16
7.04329759e-16
7.347456633e-16
7.66622039e-16
8.000332856e-16
8.350590291e-16
8.717848889e-16
9.103034783e-16
9.507157327e-16
9.931326991e-16
1.037677977e-15
1.084491083e-15
1.133732115e-15
1.185588277e-15
1.240283022e-15
1.298088935e-15
1.359345895e-15
1.424486778e-15
1.49407383e-15
1.568850215e-15
1.649813126e-15
1.738317505e-15
1.836223258e-15
1.946104237e-15
2.071544953e-15
2.217561879e-15
2.391201667e-15
2.602390597e-15
2.865140704e-15
3.199262292e-15
3.632795281e-15
4.205460877e-15
4.973561312e-15
6.016934503e-15
7.448824397e-15
9.429887752e-15
1.218806829e-14
1.604679215e-14
2.146496256e-14
2.909368227e-14
3.98566852e-14
5.506436491e-14
7.657539782e-14
1.070257718e-13
1.501532455e-13
2.112568655e-13
2.978475508e-13
4.205688539e-13
5.944995816e-13
8.40995818e-13
1.190294426e-12
1.685190794e-12
2.386230909e-12
3.379036282e-12
4.784630069e-12
6.773981733e-12
9.588474419e-12
1.356867661e-11
1.91947402e-11
2.714304949e-11
3.83655433e-11
5.420060628e-11
7.652781581e-11
1.079834591e-10
1.52260022e-10
2.145213468e-10
3.019765679e-10
4.246711621e-10
5.965736157e-10
8.370626938e-10
1.172954743e-09
1.641254795e-09
2.292871602e-09
3.197607437e-09
4.45082082e-09
6.182266236e-09
8.567740915e-09
1.184431502e-08
1.633008688e-08
2.244958565e-08
3.076613334e-08
4.202266729e-08
5.719269901e-08
7.754323051e-08
1.047115459e-07
1.407978261e-07
1.88475481e-07
2.51120945e-07
3.329644332e-07
4.392628107e-07
5.764952874e-07
7.525821171e-07
9.771258144e-07
1.261673478e-06
1.619997355e-06
2.068388201e-06
2.625951014e-06
3.314883622e-06
4.160699134e-06
5.192320169e-06
6.441906326e-06
7.944161609e-06
9.734670286e-06
1.184648657e-05
1.430369354e-05
1.710705563e-05
2.022643572e-05
2.35373765e-05
2.685916726e-05
2.979322724e-05
3.172904973e-05
3.183479947e-05
2.947665729e-05
2.446425413e-05
1.761045204e-05
1.071786724e-05
5.537347314e-06
2.569325527e-06
1.157370069e-06
5.288971157e-07
2.480787379e-07
1.198481917e-07
5.8389672e-08
2.954895508e-08
1.530331259e-08
8.107637146e-09
4.327792062e-09
2.371721651e-09
1.320751642e-09
7.462887346e-10
4.270998753e-10
2.474383029e-10
1.449591645e-10
8.579114813e-11
5.124746873e-11
3.087439668e-11
1.874818558e-11
1.143174664e-11
7.030043133e-12
4.328868325e-12
2.685896089e-12
1.67304067e-12
1.045753827e-12
6.558303451e-13
4.128845047e-13
2.597531048e-13
1.625374347e-13
1.017269019e-13
6.367471314e-14
3.984968165e-14
2.492922895e-14
1.558662202e-14
9.73684457e-15
6.073413072e-15
3.779794985e-15
2.374115952e-15
1.490475942e-15
9.286006599e-16
5.78076025e-16
3.594007445e-16
2.23030745e-16
1.380695994e-16
8.522031098e-17
5.244050184e-17
3.213503875e-17
1.960577949e-17
1.190251044e-17
7.185578631e-18
4.310448638e-18
2.566969047e-18
1.515870668e-18
8.863860828e-19
5.122645737e-19
2.918750596e-19
1.633945633e-19
8.942429525e-20
4.748302845e-20
2.415434564e-20
1.149843722e-20
4.86254761e-21
1.551934697e-21
2.797483242e-23
0
0
0
0
0
0
0
0
0
0
0
0
0
0
0
0
1.095310779e-25
6.407447281e-25
8.330517425e-25
8.421070674e-25
7.617820839e-25
6.464425923e-25
5.258815249e-25
4.150821312e-25
3.199715896e-25
2.420050369e-25
1.801937753e-25
1.324228268e-25
9.623793378e-26
6.927244753e-26
4.944712265e-26
3.503651313e-26
2.46634666e-26
1.725967066e-26
1.201427789e-26
8.322400113e-27
5.739062993e-27
3.940637209e-27
2.693842598e-27
1.831487927e-27
1.239046743e-27
8.347589887e-28
5.60391196e-28
3.750544083e-28
2.503672088e-28
1.667461837e-28
1.108045845e-28
7.34679487e-29
4.860495066e-29
3.208485917e-29
2.113211781e-29
1.388633222e-29
9.103418345e-30
5.953288717e-30
3.88329018e-30
2.526267518e-30
1.638821689e-30
1.059941632e-30
6.833481333e-31
4.390444478e-31
2.810347438e-31
1.791655873e-31
1.137177307e-31
7.182871639e-32
4.513171454e-32
2.82006935e-32
1.752914098e-32
1.086121265e-32
6.702726937e-33
4.113296552e-33
2.506955881e-33
1.515151763e-33
9.063062648e-34
5.351680769e-34
3.108606429e-34
1.767136633e-34
9.753305979e-35
5.15683469e-35
2.546565511e-35
1.108275094e-35
3.498182012e-36
0
0
0
0
0
0
0
0
0
0
0
0
0
0
0
0
0
0
0
0
0
0
0
0
0
1.042395407e-40
1.480927957e-40
1.542484782e-40
1.418909921e-40
1.209728416e-40
9.876275285e-41
7.832410073e-41
6.080807731e-41
4.642062599e-41
3.496077615e-41
2.623901156e-41
1.998984978e-41
1.4238344e-41
1.008013849e-41
7.162407923e-42
5.140288156e-42
3.742912525e-42
2.803984513e-42
2.209292879e-42
1.605920281e-42
1.208689402e-42
9.660303691e-43
6.832935829e-43
4.932063606e-43
3.671434795e-43
2.895208497e-43
2.562107251e-43
2.648810836e-43
2.057624519e-43
1.446370053e-43
1.060656852e-43
7.077331536e-44
4.694158744e-44
3.207974857e-44
2.3745607e-44
1.916081938e-44
1.611688078e-44
1.391773464e-44
1.143765837e-44
9.253758238e-45
7.926445422e-45
6.046482295e-45
5.242911172e-45
5.654748631e-45
3.901270737e-45
2.685715278e-45
1.893764954e-45
1.410183223e-45
1.044899368e-45
1.035865842e-45
1.376802256e-45
2.068218654e-45
1.55104923e-45
1.406799693e-45
1.681145729e-45
1.234428458e-45
1.068492006e-45
1.153315042e-45
1.481901846e-45
1.302838233e-45
1.035031564e-45
9.527132383e-46
8.707638476e-46
9.260355176e-46
8.47414905e-46
6.732831883e-46
6.383979161e-46
5.682353544e-46
5.445349344e-46
4.671414561e-46
3.013739263e-46
2.037560167e-46
1.539923428e-46
1.017673185e-46
7.396120626e-47
6.499124387e-47
7.372734951e-47
8.305960269e-47
7.203481099e-47
4.508671271e-47
2.927835128e-47
2.077158212e-47
1.827936356e-47
2.128197376e-47
2.467512033e-47
3.587791149e-47
2.97419038e-47
2.947460824e-47
2.781118836e-47
2.252552016e-47
2.321894827e-47
1.443899359e-47
9.006697026e-48
5.658255293e-48
3.611541513e-48
2.414649061e-48
1.83739154e-48
1.837123739e-48
2.377448814e-48
1.821272878e-48
1.676781723e-48
1.925920131e-48
1.353660852e-48
9.208723826e-49
6.680474481e-49
5.383335691e-49
4.671721751e-49
4.918560586e-49
5.641431614e-49
5.178671359e-49
6.060131114e-49
5.307908417e-49
3.571282227e-49
2.750264892e-49
2.135965532e-49
1.7485007e-49
1.654367747e-49
1.040143264e-49
6.977024574e-50
5.284260273e-50
4.360083633e-50
4.757428326e-50
6.570591182e-50
8.425259649e-50
8.559660795e-50
8.472546334e-50
7.463104174e-50
5.353905987e-50
4.509738712e-50
4.829513233e-50
4.252281477e-50
2.844188273e-50
1.949556598e-50
1.404282766e-50
1.09939542e-50
1.005818948e-50
6.915945268e-51
4.872130845e-51
3.606012972e-51
2.928279323e-51
2.744365623e-51
3.112772846e-51
2.698350553e-51
2.802751914e-51
3.441792433e-51
2.443452602e-51
1.946010722e-51
1.302331539e-51
8.988886376e-52
6.4069518e-52
4.974990798e-52
4.278983275e-52
4.357789695e-52
5.341380536e-52
7.616683975e-52
5.668100152e-52
5.210678385e-52
4.023964018e-52
3.809721794e-52
2.818672058e-52
2.443674993e-52
2.616006807e-52
2.318869888e-52
2.420304078e-52
1.709239475e-52
1.236672349e-52
9.046705258e-53
7.101297354e-53
5.982017577e-53
5.380910769e-53
5.144347635e-53
5.554817194e-53
7.010601764e-53
6.204125461e-53
6.551212174e-53
5.83803103e-53
6.15154112e-53
5.73842931e-53
3.843715602e-53
2.565691589e-53
1.711010018e-53
1.149102656e-53
8.064576386e-54
6.564129618e-54
6.693683261e-54
4.443310735e-54
2.980979616e-54
2.131103053e-54
1.70039794e-54
1.581961851e-54
1.704173259e-54
2.17124751e-54
3.142667344e-54
2.17512605e-54
1.637123055e-54
1.427283357e-54
1.517853326e-54
1.102857542e-54
8.560745e-55
7.397785802e-55
7.666141113e-55
5.45286452e-55
4.286954431e-55
4.073535228e-55
3.69389149e-55
2.617908965e-55
2.263175862e-55
2.55270895e-55
3.610110308e-55
2.424135673e-55
1.905802842e-55
1.943284213e-55
2.065081368e-55
1.415499819e-55
1.112798337e-55
8.116076861e-56
6.940414566e-56
6.619781049e-56
8.05892836e-56
1.02269536e-55
8.225277739e-56
7.2862049e-56
5.519082449e-56
4.753200244e-56
3.979623036e-56
3.885278004e-56
3.093933671e-56
2.391117507e-56
2.015990173e-56
1.478767908e-56
1.180079627e-56
7.861114279e-57
5.342905349e-57
3.897232353e-57
3.34133464e-57
3.579202838e-57
2.993058907e-57
2.421354334e-57
1.713368458e-57
1.285194548e-57
1.155024411e-57
1.361019077e-57
1.040128179e-57
9.223251295e-58
1.008039474e-57
1.363533546e-57
9.185495633e-58
6.726080611e-58
4.859158763e-58
4.038884718e-58
3.306812912e-58
2.980760132e-58
2.896079964e-58
3.173859074e-58
3.960146217e-58
3.04022653e-58
2.242683507e-58
1.756205216e-58
1.56508029e-58
1.657931151e-58
2.100119828e-58
1.447408105e-58
1.077599104e-58
9.399688456e-59
7.065776392e-59
6.467738999e-59
5.498863597e-59
5.851901168e-59
7.808964088e-59
7.553419765e-59
6.771268994e-59
6.704870258e-59
6.192197385e-59
6.105446514e-59
4.769452078e-59
4.474968643e-59
4.250137598e-59
3.287380262e-59
2.402372207e-59
2.016242532e-59
1.800451976e-59
1.25831387e-59
9.820682811e-60
9.351314921e-60
8.079088278e-60
8.86306554e-60
6.653648534e-60
5.757693524e-60
6.111731646e-60
4.097397856e-60
2.852089061e-60
2.199934878e-60
1.860496371e-60
1.57414926e-60
1.030780221e-60
7.365906307e-61
6.285460648e-61
6.822646474e-61
9.439683742e-61
8.150554798e-61
5.17916113e-61
3.383696025e-61
2.461714292e-61
2.063727414e-61
1.942725585e-61
2.046165269e-61
2.437210569e-61
3.285306932e-61
2.872293498e-61
3.036431522e-61
1.986670943e-61
1.315343063e-61
8.976683183e-62
6.705916368e-62
6.080331114e-62
6.943310041e-62
5.307414246e-62
4.276707155e-62
3.589885119e-62
3.358933612e-62
3.762389558e-62
5.100236535e-62
3.654940586e-62
3.1401782e-62
2.386030862e-62
2.263342681e-62
2.808284838e-62
2.120931276e-62
1.511018652e-62
1.246832879e-62
1.067998345e-62
6.679785617e-63
4.243424942e-63
2.792427714e-63
2.056168295e-63
1.975083763e-63
1.68818993e-63
1.928876409e-63
2.586257901e-63
2.379572056e-63
2.71581218e-63
2.756737684e-63
2.192127492e-63
1.568593308e-63
1.292872273e-63
1.304567315e-63
8.37213964e-64
5.395553796e-64
3.678473637e-64
2.784809881e-64
2.509855387e-64
2.284114137e-64
2.038828292e-64
2.248439841e-64
2.085194074e-64
2.332233e-64
1.918679466e-64
1.506469051e-64
1.283492235e-64
1.145849519e-64
1.12924214e-64
1.274569947e-64
1.653050552e-64
1.767057182e-64
1.476855204e-64
1.081385492e-64
8.321320975e-65
6.58372342e-65
5.478755706e-65
4.888254078e-65
1.040788136e-65
9.773914141e-67
0
0
0
7.277806313e-69
1.117462989e-70
0
0
0
3.109453654e-74
1.16535172e-72
1.988858412e-73
2.209230926e-74
3.14397212e-75
7.567728362e-76
1.247342421e-77
3.846436114e-76
7.107734987e-78
1.338670717e-76
1.404901876e-77
2.633874497e-78
1.843359242e-77
8.962445752e-78
7.756504655e-79
5.44351475e-80
6.047125996e-79
4.548068202e-80
1.436476545e-79
8.410825378e-81
8.057605866e-80
8.293164742e-80
5.860259091e-83
0
4.030628055e-81
2.773887742e-80
4.55595674e-82
0
0
0
6.310821467e-83
6.671113644e-83
1.178482839e-81
4.099889827e-82
0
2.05890055e-82
2.483684401e-82
2.220858928e-82
7.587198792e-83
0
5.73835804e-83
0
1.792160348e-83
3.621476146e-84
9.087126501e-84
1.117267341e-83
1.27805492e-83
8.11898758e-85
2.070150922e-84
1.537847603e-84
7.877296361e-86
4.235159948e-85
0
0
2.369100358e-86
5.337920715e-88
0
9.709498382e-88
6.143431674e-87
3.391000407e-88
1.469927329e-87
0
3.138168691e-89
4.982459668e-90
4.085814568e-88
9.999693331e-88
0
4.754157114e-90
6.994906783e-89
4.276637089e-89
3.153340118e-89
5.322806805e-89
4.180615033e-89
3.640226962e-89
6.29516815e-91
0
3.19835933e-92
0
8.507081272e-91
3.76851833e-91
1.38267178e-92
4.490290728e-91
5.927282076e-92
4.39005948e-92
6.29381578e-93
1.501344611e-94
6.968611143e-93
1.713678339e-94
2.681195857e-94
2.896107596e-95
7.790367831e-95
0
2.165017935e-94
1.211017597e-94
3.354641837e-96
5.494326456e-95
6.047757184e-96
8.400229159e-97
1.36728502e-95
4.441042692e-95
5.132876524e-97
0
2.544333539e-97
3.591747521e-95
0
2.648109938e-95
6.3402251e-96
8.042283004e-98
0
3.171084131e-95
4.531986003e-97
9.854843972e-96
0
3.491847001e-96
0
0
1.856346094e-96
4.300743223e-96
2.122202111e-95
6.976282492e-96
2.424858715e-95
3.527910138e-95
3.14957655e-95
1.157266973e-95
0
6.036483419e-96
1.269663067e-95
0
1.619278287e-96
1.465367187e-95
6.447526481e-96
2.469154834e-96
4.527008442e-98
9.363756157e-96
4.708481986e-96
5.510323565e-95
2.90989669e-96
3.131189108e-95
6.413954652e-95
3.094982287e-95
0
0
1.066811646e-94
8.870838805e-96
6.002709629e-95
1.019773773e-96
4.44214964e-96
9.679469042e-98
8.612064949e-96
6.582952213e-96
5.67435508e-95
5.007095984e-96
4.960486882e-96
2.901737903e-95
3.378655581e-95
3.462460624e-97
6.817433799e-95
7.964526578e-97
6.835130921e-95
4.960245996e-96
6.938245146e-96
1.593703391e-94
1.078035723e-95
3.302671622e-95
0
1.875196089e-95
6.598546696e-96
1.882594878e-95
0
6.003857505e-96
1.2850452e-97
1.207275373e-97
1.127104787e-95
3.57738267e-96
0
9.048045931e-95
8.081529219e-97
7.276838691e-95
3.369308541e-95
0
4.981869538e-95
2.029002855e-96
3.577064327e-97
9.156471468e-96
1.492456851e-96
0
0
0
5.83986633e-96
0
4.119072514e-97
1.036760733e-97
0
8.483458766e-96
9.728094059e-96
1.289540744e-95
1.899581208e-95
7.758706128e-96
1.237940545e-95
6.722035431e-97
1.544728113e-96
3.253822068e-96
1.184396111e-95
0
2.885662464e-95
3.113018633e-96
3.652701604e-95
5.711165923e-96
8.133239575e-98
3.14810539e-96
1.192420052e-97
0
1.349663035e-99
3.702721967e-96
5.134692278e-97
0
0
0
6.461170944e-96
2.431060496e-95
4.536653785e-96
5.951082533e-96
1.324879068e-95
0
2.193293414e-95
8.077182441e-96
7.454237566e-96
3.473024706e-95
1.458751376e-96
4.100853219e-95
2.646114769e-97
3.553757465e-95
1.564827471e-95
3.11831239e-97
8.857734684e-96
2.78987328e-95
3.583273749e-96
4.512988723e-95
1.808990583e-96
6.538266619e-96
)
;

boundaryField
{
    inlet
    {
        type            fixedValue;
        value           uniform 0;
    }
    outlet
    {
        type            zeroGradient;
    }
    wall
    {
        type            empty;
    }
}


// ************************************************************************* //
