/*--------------------------------*- C++ -*----------------------------------*\
  =========                 |
  \\      /  F ield         | OpenFOAM: The Open Source CFD Toolbox
   \\    /   O peration     | Website:  https://openfoam.org
    \\  /    A nd           | Version:  7
     \\/     M anipulation  |
\*---------------------------------------------------------------------------*/
FoamFile
{
    version     2.0;
    format      ascii;
    class       volScalarField;
    location    "0.000558243009";
    object      NC7KET;
}
// * * * * * * * * * * * * * * * * * * * * * * * * * * * * * * * * * * * * * //

dimensions      [0 0 0 0 0 0 0];

internalField   nonuniform List<scalar> 
1500
(
1.646309467e-19
6.392856084e-19
1.31296595e-18
1.955832705e-18
2.423343701e-18
2.700813428e-18
2.840623789e-18
2.90191454e-18
2.925695961e-18
2.933973789e-18
2.936587716e-18
2.937343651e-18
2.937545481e-18
2.937595575e-18
2.937607201e-18
2.937609736e-18
2.937610259e-18
2.937610361e-18
2.937610379e-18
2.937610383e-18
2.937610383e-18
2.937610383e-18
2.937610383e-18
2.937610383e-18
2.937610383e-18
2.937610383e-18
2.937610383e-18
2.937610383e-18
2.937610383e-18
2.937610383e-18
2.937610383e-18
2.937610383e-18
2.937610383e-18
2.937610383e-18
2.937610383e-18
2.937610383e-18
2.937610383e-18
2.937610383e-18
2.937610383e-18
2.937610383e-18
2.937610383e-18
2.937610383e-18
2.937610383e-18
2.937610383e-18
2.937610383e-18
2.937610383e-18
2.937610383e-18
2.937610383e-18
2.937610383e-18
2.937610383e-18
2.937610383e-18
2.937610383e-18
2.937610383e-18
2.937610383e-18
2.937610383e-18
2.937610383e-18
2.937610383e-18
2.937610383e-18
2.937610383e-18
2.937610383e-18
2.937610383e-18
2.937610383e-18
2.937610383e-18
2.937610383e-18
2.937610383e-18
2.937610383e-18
2.937610383e-18
2.937610383e-18
2.937610383e-18
2.937610383e-18
2.937610383e-18
2.937610383e-18
2.937610383e-18
2.937610383e-18
2.937610383e-18
2.937610383e-18
2.937610383e-18
2.937610383e-18
2.937610383e-18
2.937610383e-18
2.937610383e-18
2.937610383e-18
2.937610383e-18
2.937610383e-18
2.937610383e-18
2.937610383e-18
2.937610383e-18
2.937610383e-18
2.937610383e-18
2.937610383e-18
2.937610383e-18
2.937610383e-18
2.937610383e-18
2.937610383e-18
2.937610383e-18
2.937610383e-18
2.937610383e-18
2.937610383e-18
2.937610383e-18
2.937610383e-18
2.937610383e-18
2.937610383e-18
2.937610383e-18
2.937610383e-18
2.937610383e-18
2.937610383e-18
2.937610383e-18
2.937610383e-18
2.937610383e-18
2.937610383e-18
2.937610383e-18
2.937610383e-18
2.937610383e-18
2.937610383e-18
2.937610383e-18
2.937610383e-18
2.937610383e-18
2.937610383e-18
2.937610383e-18
2.937610383e-18
2.937610383e-18
2.937610383e-18
2.937610383e-18
2.937610383e-18
2.937610383e-18
2.937610383e-18
2.937610383e-18
2.937610383e-18
2.937610383e-18
2.937610383e-18
2.937610383e-18
2.937610383e-18
2.937610383e-18
2.937610383e-18
2.937610383e-18
2.937610383e-18
2.937610383e-18
2.937610383e-18
2.937610383e-18
2.937610383e-18
2.937610383e-18
2.937610383e-18
2.937610383e-18
2.937610383e-18
2.937610383e-18
2.937610383e-18
2.937610383e-18
2.937610383e-18
2.937610383e-18
2.937610383e-18
2.937610383e-18
2.937610383e-18
2.937610383e-18
2.937610383e-18
2.937610383e-18
2.937610383e-18
2.937610383e-18
2.937610383e-18
2.937610383e-18
2.937610383e-18
2.937610383e-18
2.937610383e-18
2.937610383e-18
2.937610383e-18
2.937610383e-18
2.937610383e-18
2.937610383e-18
2.937610383e-18
2.937610383e-18
2.937610383e-18
2.937610383e-18
2.937610383e-18
2.937610383e-18
2.937610383e-18
2.937610383e-18
2.937610383e-18
2.937610383e-18
2.937610383e-18
2.937610383e-18
2.937610383e-18
2.937610383e-18
2.937610383e-18
2.937610383e-18
2.937610383e-18
2.937610383e-18
2.937610383e-18
2.937610383e-18
2.937610383e-18
2.937610383e-18
2.937610383e-18
2.937610383e-18
2.937610383e-18
2.937610383e-18
2.937610383e-18
2.937610383e-18
2.937610383e-18
2.937610383e-18
2.937610383e-18
2.937610383e-18
2.937610383e-18
2.937610383e-18
2.937610383e-18
2.937610383e-18
2.937610383e-18
2.937610383e-18
2.937610383e-18
2.937610383e-18
2.937610383e-18
2.937610383e-18
2.937610383e-18
2.937610383e-18
2.937610383e-18
2.937610383e-18
2.937610383e-18
2.937610383e-18
2.937610383e-18
2.937610383e-18
2.937610383e-18
2.937610383e-18
2.937610383e-18
2.937610383e-18
2.937610383e-18
2.937610383e-18
2.937610383e-18
2.937610383e-18
2.937610383e-18
2.937610383e-18
2.937610383e-18
2.937610383e-18
2.937610383e-18
2.937610383e-18
2.937610383e-18
2.937610384e-18
2.937610384e-18
2.937610384e-18
2.937610384e-18
2.937610384e-18
2.937610384e-18
2.937610385e-18
2.937610386e-18
2.93761039e-18
2.937610404e-18
2.937610471e-18
2.937610779e-18
2.937612092e-18
2.937617175e-18
2.937634717e-18
2.937687358e-18
2.937818246e-18
2.938052727e-18
2.938100307e-18
2.938121193e-18
2.938143001e-18
2.938165772e-18
2.938189543e-18
2.938214352e-18
2.938240244e-18
2.938267267e-18
2.938295474e-18
2.938324918e-18
2.938355653e-18
2.93838774e-18
2.938421238e-18
2.93845621e-18
2.938492725e-18
2.93853085e-18
2.93857066e-18
2.938612231e-18
2.938655643e-18
2.938700979e-18
2.938748327e-18
2.93879778e-18
2.938849433e-18
2.938903388e-18
2.938959749e-18
2.939018628e-18
2.93908014e-18
2.939144407e-18
2.939211555e-18
2.939281719e-18
2.939355038e-18
2.939431659e-18
2.939511734e-18
2.939595426e-18
2.939682903e-18
2.939774343e-18
2.939869931e-18
2.939969862e-18
2.94007434e-18
2.940183581e-18
2.94029781e-18
2.940417263e-18
2.940542189e-18
2.940672849e-18
2.940809516e-18
2.940952479e-18
2.941102039e-18
2.941258516e-18
2.941422242e-18
2.94159357e-18
2.941772868e-18
2.941960526e-18
2.942156952e-18
2.942362578e-18
2.942577856e-18
2.942803263e-18
2.943039303e-18
2.943286505e-18
2.943545427e-18
2.943816659e-18
2.944100821e-18
2.94439857e-18
2.944710596e-18
2.94503763e-18
2.945380445e-18
2.945739854e-18
2.946116722e-18
2.94651196e-18
2.946926532e-18
2.947361462e-18
2.94781783e-18
2.948296784e-18
2.94879954e-18
2.949327388e-18
2.949881695e-18
2.950463916e-18
2.951075593e-18
2.951718369e-18
2.952393988e-18
2.953104306e-18
2.953851301e-18
2.954637076e-18
2.955463874e-18
2.956334088e-18
2.957250269e-18
2.958215137e-18
2.959231599e-18
2.960302761e-18
2.961431939e-18
2.96262268e-18
2.963878777e-18
2.965204289e-18
2.966603559e-18
2.968081239e-18
2.969642309e-18
2.971292105e-18
2.973036347e-18
2.974881162e-18
2.976833122e-18
2.978899272e-18
2.981087167e-18
2.98340491e-18
2.985861192e-18
2.988465334e-18
2.991227335e-18
2.99415792e-18
2.997268592e-18
3.000571686e-18
3.00408043e-18
3.007809004e-18
3.011772611e-18
3.015987541e-18
3.020471248e-18
3.025242428e-18
3.030321098e-18
3.035728684e-18
3.041488114e-18
3.047623908e-18
3.054162279e-18
3.061131241e-18
3.068560712e-18
3.07648263e-18
3.08493107e-18
3.093942369e-18
3.103555249e-18
3.11381095e-18
3.124753366e-18
3.136429184e-18
3.148888031e-18
3.162182615e-18
3.176368883e-18
3.19150617e-18
3.207657362e-18
3.224889049e-18
3.24327169e-18
3.26287978e-18
3.283792008e-18
3.306091428e-18
3.329865617e-18
3.35520685e-18
3.382212252e-18
3.410983967e-18
3.44162931e-18
3.474260928e-18
3.508996942e-18
3.545961096e-18
3.585282896e-18
3.627097733e-18
3.671547012e-18
3.718778262e-18
3.768945234e-18
3.822207994e-18
3.878733002e-18
3.938693169e-18
4.002267911e-18
4.069643177e-18
4.141011467e-18
4.216571825e-18
4.296529822e-18
4.381097507e-18
4.470493346e-18
4.564942135e-18
4.664674893e-18
4.769928725e-18
4.880946671e-18
4.997977517e-18
5.121275591e-18
5.25110053e-18
5.387717016e-18
5.531394495e-18
5.682406862e-18
5.841032118e-18
6.007552012e-18
6.182251642e-18
6.365419043e-18
6.557344744e-18
6.758321303e-18
6.968642816e-18
7.188604408e-18
7.418501701e-18
7.658630265e-18
7.909285044e-18
8.170759774e-18
8.443346383e-18
8.727334378e-18
9.023010224e-18
9.330656706e-18
9.650552302e-18
9.982970531e-18
1.032817932e-17
1.068644035e-17
1.105800845e-17
1.144313091e-17
1.184204692e-17
1.225498691e-17
1.268217201e-17
1.312381342e-17
1.358011187e-17
1.405125709e-17
1.453742733e-17
1.50387888e-17
1.555549532e-17
1.608768781e-17
1.663549397e-17
1.719902792e-17
1.777838988e-17
1.837366592e-17
1.898492775e-17
1.961223252e-17
2.025562272e-17
2.091512608e-17
2.159075557e-17
2.228250938e-17
2.299037104e-17
2.371430951e-17
2.445427938e-17
2.521022111e-17
2.598206129e-17
2.676971303e-17
2.757307632e-17
2.839203851e-17
2.922647479e-17
3.007624883e-17
3.094121331e-17
3.182121067e-17
3.271607381e-17
3.36256269e-17
3.454968623e-17
3.548806111e-17
3.644055483e-17
3.74069657e-17
3.838708809e-17
3.938071363e-17
4.038763235e-17
4.140763399e-17
4.244050928e-17
4.348605136e-17
4.454405723e-17
4.561432925e-17
4.669667679e-17
4.779091782e-17
4.889688075e-17
5.001440618e-17
5.114334886e-17
5.228357969e-17
5.343498782e-17
5.45974828e-17
5.577099697e-17
5.695548779e-17
5.815094042e-17
5.935737037e-17
6.057482622e-17
6.180339261e-17
6.304319326e-17
6.429439417e-17
6.5557207e-17
6.68318926e-17
6.811876468e-17
6.941819371e-17
7.073061097e-17
7.205651283e-17
7.339646525e-17
7.475110854e-17
7.612116204e-17
7.750743021e-17
7.891080703e-17
8.033228148e-17
8.177294378e-17
8.323399155e-17
8.471673619e-17
8.622260961e-17
8.775317104e-17
8.931011419e-17
9.089527456e-17
9.251063701e-17
9.415834346e-17
9.584070099e-17
9.756019003e-17
9.931947262e-17
1.011214015e-16
1.029690289e-16
1.048656161e-16
1.068146427e-16
1.088198168e-16
1.108850848e-16
1.130146406e-16
1.152129363e-16
1.174846928e-16
1.198349102e-16
1.222688787e-16
1.247921891e-16
1.274107445e-16
1.301307706e-16
1.329588278e-16
1.35901822e-16
1.389670164e-16
1.421620434e-16
1.45494916e-16
1.489740404e-16
1.526082274e-16
1.564067058e-16
1.603791342e-16
1.645356144e-16
1.688867044e-16
1.734434324e-16
1.782173103e-16
1.832203488e-16
1.884650722e-16
1.939645343e-16
1.997323352e-16
2.057826385e-16
2.1213019e-16
2.187903373e-16
2.257790509e-16
2.331129464e-16
2.408093088e-16
2.488861183e-16
2.573620783e-16
2.662566459e-16
2.755900642e-16
2.853833984e-16
2.956585739e-16
3.064384181e-16
3.177467066e-16
3.296082115e-16
3.420487561e-16
3.550952722e-16
3.687758641e-16
3.831198763e-16
3.981579683e-16
4.139221946e-16
4.304460922e-16
4.477647741e-16
4.659150318e-16
4.849354453e-16
5.048665029e-16
5.25750731e-16
5.476328353e-16
5.705598559e-16
5.945813368e-16
6.197495152e-16
6.461195324e-16
6.737496741e-16
7.027016468e-16
7.330409031e-16
7.648370309e-16
7.981642309e-16
8.331019138e-16
8.697354646e-16
9.081572394e-16
9.484678887e-16
9.907781404e-16
1.035211231e-15
1.081906256e-15
1.131022821e-15
1.182747532e-15
1.237303114e-15
1.29496123e-15
1.356060587e-15
1.421032528e-15
1.490437267e-15
1.565015245e-15
1.645759954e-15
1.734021268e-15
1.831652109e-15
1.941216645e-15
2.066285916e-15
2.211857591e-15
2.384952037e-15
2.595458722e-15
2.857338085e-15
3.190328068e-15
3.622367077e-15
4.19303389e-15
4.958430919e-15
5.998115798e-15
7.424939434e-15
9.399007637e-15
1.214749216e-14
1.599273798e-14
2.139213508e-14
2.899466924e-14
3.97211149e-14
5.487773103e-14
7.631742206e-14
1.066681244e-13
1.496563746e-13
2.10565593e-13
2.968849595e-13
4.192278166e-13
5.926310355e-13
8.383925598e-13
1.186668753e-12
1.68014371e-12
2.379209791e-12
3.369276823e-12
4.771076832e-12
6.755179763e-12
9.562421786e-12
1.353262453e-11
1.914492314e-11
2.707432238e-11
3.827089644e-11
5.407052044e-11
7.634941116e-11
1.077393811e-10
1.519269973e-10
2.140683345e-10
3.013624264e-10
4.238417622e-10
5.954583538e-10
8.355704239e-10
1.170969261e-09
1.638630217e-09
2.289428324e-09
3.193129922e-09
4.4450593e-09
6.174945748e-09
8.558582981e-09
1.183308005e-08
1.631664926e-08
2.243405884e-08
3.07490695e-08
4.200536524e-08
5.717766651e-08
7.753486148e-08
1.047170912e-07
1.408287567e-07
1.88549367e-07
2.512639961e-07
3.332148759e-07
4.39675297e-07
5.771465544e-07
7.535781278e-07
9.786106113e-07
1.263839962e-06
1.623100166e-06
2.0727588e-06
2.632014977e-06
3.323179936e-06
4.17190101e-06
5.207256012e-06
6.461577827e-06
7.969751836e-06
9.76752389e-06
1.188801487e-05
1.435509543e-05
1.716982391e-05
2.029917514e-05
2.362218939e-05
2.694496862e-05
2.986591344e-05
3.176977611e-05
3.183681499e-05
2.942129501e-05
2.434173738e-05
1.742945611e-05
1.051921095e-05
5.381245227e-06
2.47831326e-06
1.102486061e-06
4.909849111e-07
2.211810421e-07
1.014121481e-07
4.627227511e-08
2.183886268e-08
1.048737737e-08
5.13685085e-09
2.525738091e-09
1.279567938e-09
6.604114761e-10
3.477406423e-10
1.851785532e-10
1.012005989e-10
5.633816577e-11
3.193919175e-11
1.843093763e-11
1.082036423e-11
6.461070155e-12
3.898084173e-12
2.396227423e-12
1.486323484e-12
9.350072137e-13
5.940510751e-13
3.807915749e-13
2.461199027e-13
1.604843358e-13
1.046036258e-13
6.812002922e-14
4.452770297e-14
2.919761014e-14
1.91924157e-14
1.263687918e-14
8.326905895e-15
5.485537346e-15
3.607984209e-15
2.366645936e-15
1.574608668e-15
1.049037786e-15
6.920219956e-16
4.567288361e-16
3.01531855e-16
1.990553433e-16
1.313359408e-16
8.656890032e-17
5.704418221e-17
3.75071083e-17
2.462040103e-17
1.613177472e-17
1.054896887e-17
6.883650092e-18
4.481774602e-18
2.911013725e-18
1.885989188e-18
1.218619177e-18
7.851592925e-19
5.043453276e-19
3.22915664e-19
2.060351442e-19
1.309708956e-19
8.292293436e-20
5.228045325e-20
3.282006917e-20
2.052542923e-20
1.281622517e-20
7.985027544e-21
4.960169178e-21
3.069168012e-21
1.889631357e-21
1.156101399e-21
7.017303461e-22
4.216918067e-22
2.501896159e-22
1.459915791e-22
8.331844759e-23
4.610264247e-23
2.437024109e-23
1.196214419e-23
5.100407809e-24
1.488123437e-24
0
0
0
0
0
0
0
0
0
0
0
0
0
0
0
0
0
0
0
0
0
0
0
0
0
0
0
0
0
0
3.054824652e-30
4.542318227e-30
4.681686646e-30
4.209989694e-30
3.522309063e-30
2.817649489e-30
2.185768773e-30
1.657979705e-30
1.2362382e-30
9.093257723e-31
6.614905183e-31
4.767754427e-31
3.409509368e-31
2.421702922e-31
1.709873189e-31
1.200906157e-31
8.39431139e-32
5.842083756e-32
4.04923383e-32
2.795236362e-32
1.920939554e-32
1.312047927e-32
8.901470041e-33
6.003558339e-33
4.027437967e-33
2.688432578e-33
1.786277471e-33
1.181596394e-33
7.782501717e-34
5.104250887e-34
3.333641064e-34
2.16808685e-34
1.404122613e-34
9.056262108e-35
5.819900899e-35
3.732422397e-35
2.397448625e-35
1.542311821e-35
9.936092018e-36
6.408188385e-36
4.134688072e-36
2.664292868e-36
1.7067538e-36
1.086137942e-36
6.860417603e-37
4.296379057e-37
2.664088173e-37
1.632760935e-37
9.864849388e-38
5.850944056e-38
3.389716978e-38
1.90086736e-38
1.015572971e-38
5.020753828e-39
2.14123937e-39
5.804664157e-40
0
0
0
0
0
0
0
0
0
0
0
0
0
0
0
0
0
0
0
0
0
0
0
0
1.219929593e-45
4.13239941e-44
7.671275649e-44
1.323800611e-43
9.103112587e-44
7.131076593e-44
6.615480625e-44
4.958382793e-44
3.588919952e-44
2.819554272e-44
2.625678662e-44
2.565830782e-44
3.272957901e-44
2.355900469e-44
2.084775662e-44
2.477089231e-44
3.733483887e-44
2.28116017e-44
1.525644332e-44
1.259129489e-44
1.410764607e-44
1.670011721e-44
1.120305473e-44
8.569019076e-45
8.133703416e-45
1.004118665e-44
7.349501777e-45
6.504142989e-45
5.100083782e-45
4.998992891e-45
4.550785126e-45
3.024420877e-45
2.097391084e-45
1.594753024e-45
1.405905498e-45
1.360828828e-45
1.619937341e-45
1.319367776e-45
9.5185819e-46
7.608808327e-46
5.800014307e-46
5.207974598e-46
5.762017377e-46
6.00301332e-46
4.336763622e-46
3.336635747e-46
2.836488731e-46
2.680069624e-46
2.852199012e-46
2.201902634e-46
1.686242825e-46
1.311722663e-46
1.069812633e-46
9.454889939e-47
7.430672466e-47
6.464847737e-47
6.484302059e-47
7.520596373e-47
5.723645325e-47
4.563039256e-47
4.065342416e-47
4.331086276e-47
3.969034362e-47
2.919101748e-47
2.357377779e-47
2.147766692e-47
1.788807835e-47
1.605167869e-47
1.551373556e-47
1.414605947e-47
1.104874559e-47
8.280362588e-48
6.022327452e-48
4.284659939e-48
3.021289236e-48
2.166263553e-48
1.598332079e-48
1.134243713e-48
8.435391675e-49
6.247752294e-49
4.98430787e-49
4.41244973e-49
4.212390637e-49
4.638913974e-49
6.095194829e-49
4.217664224e-49
3.427880914e-49
2.533314084e-49
2.180261854e-49
2.200892688e-49
2.68272634e-49
2.285861996e-49
2.136922752e-49
2.36118734e-49
3.100172479e-49
2.103469518e-49
1.491547281e-49
1.066777533e-49
8.441636357e-50
8.063242926e-50
9.638280608e-50
6.796544481e-50
5.278362699e-50
4.577452092e-50
4.362199992e-50
4.604084056e-50
3.556764392e-50
2.730116389e-50
2.160451916e-50
1.780951236e-50
1.481890347e-50
1.267462692e-50
1.216034937e-50
1.147278226e-50
1.316698766e-50
1.373749837e-50
1.339520865e-50
1.190570223e-50
1.213034952e-50
1.00556012e-50
8.432890672e-51
8.729218409e-51
5.91824828e-51
4.287231403e-51
3.553664565e-51
2.72508854e-51
2.380231268e-51
2.502869039e-51
1.816833102e-51
1.547948121e-51
1.665005613e-51
1.454741253e-51
1.181232407e-51
8.732432135e-52
7.573613695e-52
7.32591945e-52
5.121999803e-52
3.714262622e-52
2.888067044e-52
2.471139881e-52
1.871300551e-52
1.558712924e-52
1.480024453e-52
1.715491997e-52
1.546279818e-52
1.073242179e-52
8.088911209e-53
7.196909035e-53
8.214223778e-53
1.172880875e-52
9.396449382e-53
9.461410214e-53
1.071990222e-52
8.824417462e-53
8.826576509e-53
6.664144572e-53
5.852424928e-53
4.190777995e-53
3.195214627e-53
2.627335001e-53
2.55145893e-53
3.029707735e-53
2.609847429e-53
2.079956941e-53
1.511673606e-53
1.244402532e-53
8.153009657e-54
5.521996274e-54
3.611573561e-54
2.490263247e-54
1.983140902e-54
1.938262931e-54
2.300890658e-54
2.398185406e-54
1.64496693e-54
1.171882401e-54
9.169361995e-55
8.16117934e-55
9.137811768e-55
6.461513856e-55
5.14316446e-55
4.71863853e-55
5.225888036e-55
4.881430266e-55
5.489707794e-55
3.76127624e-55
2.666080834e-55
2.020315338e-55
1.680258454e-55
1.449909563e-55
1.375748064e-55
1.499514292e-55
1.857393298e-55
1.559255848e-55
1.083303134e-55
7.595885808e-56
5.544021861e-56
4.284701234e-56
3.552855938e-56
3.060458917e-56
2.53806646e-56
2.164751734e-56
1.995067887e-56
2.111328448e-56
1.965610505e-56
1.370799266e-56
9.723265551e-57
7.173383333e-57
6.224878932e-57
5.682453401e-57
6.279147191e-57
8.154378081e-57
1.207209046e-56
8.801759265e-57
7.409564301e-57
7.692549595e-57
7.347620418e-57
8.711502674e-57
7.150550137e-57
4.808078249e-57
3.492197298e-57
2.943342935e-57
3.060258984e-57
2.060458355e-57
1.493732431e-57
1.024448247e-57
6.990397858e-58
4.841292212e-58
3.260806877e-58
2.368404974e-58
2.111493725e-58
1.865973139e-58
2.246500332e-58
3.301826643e-58
5.298576444e-58
6.958888817e-58
4.610329548e-58
3.188937449e-58
2.410685589e-58
2.137682372e-58
2.324847611e-58
2.0571945e-58
1.405362089e-58
9.773371522e-59
6.89473529e-59
5.006672184e-59
3.82690956e-59
3.186886074e-59
2.938006812e-59
2.928548888e-59
2.709687219e-59
2.804040506e-59
3.215635495e-59
3.114138447e-59
2.408096833e-59
1.937631108e-59
1.636032545e-59
1.462931152e-59
1.428969746e-59
1.374416321e-59
1.059318176e-59
8.48134127e-60
7.358579863e-60
6.096074718e-60
5.48962166e-60
5.568034334e-60
6.368115105e-60
6.461897905e-60
6.387740113e-60
6.706154271e-60
5.972853922e-60
4.166815589e-60
2.906538142e-60
2.135523693e-60
1.716259105e-60
1.618940209e-60
1.118278097e-60
8.275043457e-61
6.493516869e-61
5.116252202e-61
4.280906312e-61
4.126379212e-61
3.276910114e-61
3.159415194e-61
3.817737934e-61
5.105443896e-61
3.831821944e-61
3.429053518e-61
3.724166922e-61
2.583973483e-61
1.804900277e-61
1.303339278e-61
1.031397834e-61
9.65668159e-62
6.284469815e-62
4.082163736e-62
2.558348131e-62
1.737176443e-62
1.532296343e-62
1.786516029e-62
2.481757773e-62
3.714535493e-62
3.99142598e-62
3.026366307e-62
2.471916771e-62
2.068496557e-62
1.94271219e-62
2.027066962e-62
1.813627265e-62
1.891745222e-62
1.336424118e-62
9.634095383e-63
6.648679087e-63
4.723436775e-63
3.605381952e-63
3.151759228e-63
3.338065444e-63
4.315222991e-63
3.440678465e-63
3.271013726e-63
2.659737684e-63
2.505019842e-63
2.779508271e-63
3.591021411e-63
3.683427876e-63
2.576254898e-63
1.703312053e-63
1.129878044e-63
7.616176367e-64
5.373751049e-64
4.199001371e-64
3.913273105e-64
3.919265549e-64
3.149001941e-64
3.019594049e-64
3.58398678e-64
3.243238975e-64
2.328386138e-64
1.577016203e-64
1.23379936e-64
8.110741126e-65
5.764123064e-65
4.557298149e-65
3.93807639e-65
3.542278378e-65
3.067383411e-65
3.186685846e-65
2.294650688e-65
2.121221655e-65
2.7435145e-65
1.986606506e-65
2.171075005e-66
4.962098704e-67
2.381111619e-67
5.742479751e-69
2.655511142e-69
1.761852416e-70
8.712315619e-72
8.476184875e-71
2.832673515e-72
1.33562937e-73
1.513604822e-72
1.310763586e-73
1.162791746e-74
0
1.236752174e-75
4.673734104e-77
1.412749984e-76
8.396041277e-77
3.996323679e-77
5.49546892e-77
9.41868717e-79
9.221519422e-78
4.038038522e-78
3.611184875e-78
3.228161492e-80
2.22696041e-79
1.6165098e-80
0
2.614530446e-80
0
1.325519668e-80
7.645159205e-82
0
0
1.078271509e-80
1.042883101e-81
0
0
6.967064504e-84
7.865236672e-82
1.772825851e-81
9.752838679e-82
2.538688853e-81
2.538258221e-82
8.538506324e-83
2.808296246e-82
7.430450623e-83
1.35128697e-82
0
9.266616184e-83
7.497792418e-83
8.683388283e-84
0
4.816847839e-83
5.37541486e-84
4.834394988e-84
0
1.800345383e-84
1.741916236e-84
9.567170347e-87
1.615677729e-85
0
4.778257144e-88
2.147835621e-86
3.804282097e-88
0
2.935602538e-88
3.917038006e-87
0
0
0
1.250299422e-87
3.627274858e-87
0
1.321836452e-87
3.535218742e-89
6.109077464e-88
3.858465636e-89
0
0
6.402352077e-90
1.630309104e-90
6.492544722e-89
9.954798539e-90
0
0
0
3.697214688e-91
0
0
5.425360577e-91
3.096233744e-92
0
6.978988958e-93
2.44789035e-92
5.181847933e-94
9.380081327e-93
1.278083647e-93
1.530834298e-95
6.900664028e-94
8.781406612e-95
5.732174183e-94
8.594014419e-95
2.335313675e-96
1.089394384e-95
1.226419107e-94
2.040406435e-96
5.36098574e-96
1.702737547e-95
2.013973203e-95
0
4.552509128e-95
1.436141881e-95
2.971594355e-97
1.006050325e-95
2.310433052e-96
6.283802014e-98
3.53907976e-98
1.223455939e-95
3.658150529e-96
0
1.747740515e-95
2.103861627e-96
0
0
3.138127433e-96
0
2.377294354e-96
0
0
7.542121363e-96
8.653750469e-96
0
6.702650007e-96
0
4.399789384e-96
0
0
0
0
9.181825148e-97
5.203186264e-96
0
1.460631824e-95
3.474616451e-95
1.616559361e-96
9.818074958e-95
2.577208404e-95
0
0
4.742110993e-97
3.461002377e-95
7.937090143e-95
4.423136176e-95
2.603623541e-95
9.749954731e-97
1.005660181e-94
0
4.310467956e-96
1.477988413e-95
0
4.38159485e-95
0
6.630044242e-96
2.539404772e-95
2.572743429e-95
5.416761924e-97
8.372982665e-96
2.911179532e-95
1.747565313e-96
5.789105133e-95
9.48697776e-95
3.794408926e-95
6.676202469e-97
4.409474526e-95
1.149059483e-95
1.882458403e-95
4.439920491e-95
0
4.284558503e-96
5.133931831e-98
0
0
5.734423704e-95
3.979278549e-95
6.132655039e-97
2.196784346e-95
1.938193521e-95
1.961063042e-95
1.79466504e-95
0
6.644610424e-98
2.945836203e-96
0
0
4.186991284e-95
3.182188694e-97
2.260393166e-96
0
1.322038633e-97
2.5314787e-98
5.505524507e-96
3.18533274e-95
6.1645989e-96
5.013626263e-96
7.478450189e-96
6.100187647e-96
4.789848519e-96
7.349742508e-96
3.226328333e-97
6.767824775e-96
2.667771344e-95
1.972195403e-97
2.250764781e-95
2.615377719e-95
1.339516492e-95
2.472839499e-96
9.005466596e-96
1.766495829e-96
3.057302389e-96
1.781196817e-95
1.183968114e-97
1.645343116e-95
3.098290539e-97
1.313727754e-95
7.685993507e-96
0
0
6.961694615e-97
0
0
3.277325335e-96
1.397301341e-96
0
0
3.716392469e-96
1.350714802e-95
0
1.591168593e-95
4.459489807e-95
1.405236968e-95
2.253048881e-95
3.737699673e-96
3.456587412e-96
6.216680515e-96
0
8.862831531e-96
1.069222721e-95
0
)
;

boundaryField
{
    inlet
    {
        type            fixedValue;
        value           uniform 0;
    }
    outlet
    {
        type            zeroGradient;
    }
    wall
    {
        type            empty;
    }
}


// ************************************************************************* //
