/*--------------------------------*- C++ -*----------------------------------*\
  =========                 |
  \\      /  F ield         | OpenFOAM: The Open Source CFD Toolbox
   \\    /   O peration     | Website:  https://openfoam.org
    \\  /    A nd           | Version:  7
     \\/     M anipulation  |
\*---------------------------------------------------------------------------*/
FoamFile
{
    version     2.0;
    format      ascii;
    class       volScalarField;
    location    "0.000558243009";
    object      O;
}
// * * * * * * * * * * * * * * * * * * * * * * * * * * * * * * * * * * * * * //

dimensions      [0 0 0 0 0 0 0];

internalField   nonuniform List<scalar> 
1500
(
2.532680487e-27
2.647613049e-27
2.369403386e-27
2.11541348e-27
1.941354395e-27
1.841006658e-27
1.790467912e-27
1.76785863e-27
1.758760164e-27
1.755384946e-27
1.754145569e-27
1.753605698e-27
1.753267117e-27
1.752986883e-27
1.752738249e-27
1.752523195e-27
1.752345009e-27
1.75220246e-27
1.752090841e-27
1.752004381e-27
1.751938066e-27
1.751888376e-27
1.751853166e-27
1.751831058e-27
1.751820779e-27
1.751820686e-27
1.751828603e-27
1.751841925e-27
1.751857893e-27
1.751873905e-27
1.751887783e-27
1.751897925e-27
1.751903338e-27
1.751903589e-27
1.751898689e-27
1.75188898e-27
1.751875021e-27
1.751857505e-27
1.751837201e-27
1.751814912e-27
1.751791451e-27
1.751767612e-27
1.751744139e-27
1.751721692e-27
1.751700815e-27
1.751681909e-27
1.751665217e-27
1.751650826e-27
1.751638683e-27
1.751628621e-27
1.751620392e-27
1.751613703e-27
1.751608254e-27
1.751603765e-27
1.751599997e-27
1.751596769e-27
1.751593962e-27
1.751591523e-27
1.751589457e-27
1.75158782e-27
1.751586714e-27
1.751586267e-27
1.751586632e-27
1.751587969e-27
1.751590436e-27
1.75159418e-27
1.751599326e-27
1.751605964e-27
1.751614144e-27
1.751623869e-27
1.751635087e-27
1.751647692e-27
1.751661522e-27
1.751676361e-27
1.751691948e-27
1.751707979e-27
1.751724121e-27
1.75174002e-27
1.751755314e-27
1.751769642e-27
1.751782658e-27
1.751794039e-27
1.751803497e-27
1.751810784e-27
1.751815701e-27
1.751818101e-27
1.751817893e-27
1.751815043e-27
1.751809574e-27
1.751801563e-27
1.751791143e-27
1.751778495e-27
1.751763846e-27
1.751747462e-27
1.751729642e-27
1.751710714e-27
1.751691019e-27
1.75167091e-27
1.751650737e-27
1.751630843e-27
1.75161155e-27
1.751593151e-27
1.751575904e-27
1.751560023e-27
1.751545671e-27
1.751532961e-27
1.751521948e-27
1.751512635e-27
1.751504974e-27
1.751498871e-27
1.751494191e-27
1.751490771e-27
1.751488426e-27
1.751486961e-27
1.751486179e-27
1.751485894e-27
1.751485933e-27
1.751486151e-27
1.751486428e-27
1.751486674e-27
1.751486832e-27
1.751486872e-27
1.751486791e-27
1.75148661e-27
1.751486362e-27
1.751486096e-27
1.751485863e-27
1.751485717e-27
1.751485708e-27
1.751485882e-27
1.751486276e-27
1.751486922e-27
1.751487844e-27
1.751489061e-27
1.751490591e-27
1.751492453e-27
1.751494666e-27
1.751497256e-27
1.751500256e-27
1.751503704e-27
1.751507647e-27
1.751512137e-27
1.751517229e-27
1.751522979e-27
1.751529441e-27
1.751536661e-27
1.751544675e-27
1.751553506e-27
1.75156316e-27
1.751573622e-27
1.751584858e-27
1.751596811e-27
1.751609404e-27
1.751622541e-27
1.751636109e-27
1.75164998e-27
1.751664017e-27
1.751678074e-27
1.751692004e-27
1.751705659e-27
1.751718896e-27
1.751731577e-27
1.751743572e-27
1.75175476e-27
1.751765029e-27
1.751774275e-27
1.751782406e-27
1.751789333e-27
1.751794977e-27
1.751799263e-27
1.751802123e-27
1.751803493e-27
1.751803319e-27
1.751801554e-27
1.751798161e-27
1.751793116e-27
1.751786415e-27
1.751778071e-27
1.751768121e-27
1.751756632e-27
1.751743701e-27
1.751729462e-27
1.751714086e-27
1.751697787e-27
1.751680821e-27
1.751663485e-27
1.751646115e-27
1.751629084e-27
1.751612784e-27
1.751597623e-27
1.751584005e-27
1.751572315e-27
1.751562898e-27
1.751556046e-27
1.751551979e-27
1.751550839e-27
1.751552685e-27
1.7515575e-27
1.751565198e-27
1.751575648e-27
1.751588691e-27
1.751604166e-27
1.751621924e-27
1.751641842e-27
1.751663815e-27
1.751687743e-27
1.751713495e-27
1.751740868e-27
1.751769535e-27
1.751798997e-27
1.751828552e-27
1.751857284e-27
1.75188409e-27
1.751907752e-27
1.751927052e-27
1.751940936e-27
1.7519487e-27
1.7519502e-27
1.751946037e-27
1.751937706e-27
1.751927661e-27
1.751919282e-27
1.751916698e-27
1.751924487e-27
1.751947228e-27
1.751988953e-27
1.75205253e-27
1.752139043e-27
1.75224725e-27
1.7523732e-27
1.752510095e-27
1.752648466e-27
1.752776721e-27
1.752882072e-27
1.752951824e-27
1.752974955e-27
1.752943858e-27
1.752856094e-27
1.752715943e-27
1.752535557e-27
1.752335484e-27
1.752144393e-27
1.751997893e-27
1.751936435e-27
1.752002544e-27
1.752237753e-27
1.752679692e-27
1.753356987e-27
1.754269931e-27
1.755310401e-27
1.755710921e-27
1.755795053e-27
1.755883528e-27
1.755975486e-27
1.756070329e-27
1.756167643e-27
1.756267145e-27
1.756368649e-27
1.756472035e-27
1.756577227e-27
1.756684182e-27
1.756792881e-27
1.756903316e-27
1.757015494e-27
1.757129426e-27
1.757245133e-27
1.757362637e-27
1.757481966e-27
1.757603152e-27
1.757726228e-27
1.757851231e-27
1.757978203e-27
1.758107185e-27
1.758238224e-27
1.758371368e-27
1.758506669e-27
1.758644184e-27
1.75878397e-27
1.75892609e-27
1.759070611e-27
1.759217604e-27
1.759367143e-27
1.759519309e-27
1.759674186e-27
1.759831865e-27
1.759992441e-27
1.760156018e-27
1.760322702e-27
1.76049261e-27
1.760665864e-27
1.760842595e-27
1.761022942e-27
1.761207051e-27
1.76139508e-27
1.761587197e-27
1.761783579e-27
1.761984416e-27
1.762189908e-27
1.762400271e-27
1.762615734e-27
1.762836539e-27
1.763062946e-27
1.76329523e-27
1.763533687e-27
1.76377863e-27
1.764030394e-27
1.764289334e-27
1.764555831e-27
1.76483029e-27
1.765113144e-27
1.765404853e-27
1.765705911e-27
1.766016843e-27
1.766338208e-27
1.766670607e-27
1.767014678e-27
1.767371103e-27
1.767740611e-27
1.768123981e-27
1.768522045e-27
1.768935691e-27
1.769365867e-27
1.769813589e-27
1.770279939e-27
1.770766077e-27
1.771273239e-27
1.771802747e-27
1.772356015e-27
1.772934553e-27
1.773539973e-27
1.774174002e-27
1.774838479e-27
1.775535373e-27
1.776266787e-27
1.777034965e-27
1.777842306e-27
1.778691369e-27
1.779584889e-27
1.780525782e-27
1.781517162e-27
1.782562352e-27
1.783664894e-27
1.784828568e-27
1.786057401e-27
1.787355686e-27
1.788727999e-27
1.79017921e-27
1.791714507e-27
1.793339411e-27
1.795059795e-27
1.796881907e-27
1.798812387e-27
1.800858293e-27
1.803027119e-27
1.805326824e-27
1.807765853e-27
1.810353163e-27
1.813098251e-27
1.816011179e-27
1.819102604e-27
1.822383806e-27
1.825866721e-27
1.829563966e-27
1.833488876e-27
1.837655534e-27
1.842078805e-27
1.846774369e-27
1.851758759e-27
1.85704939e-27
1.862664601e-27
1.868623687e-27
1.874946938e-27
1.881655677e-27
1.888772294e-27
1.896320285e-27
1.904324293e-27
1.912810139e-27
1.921804865e-27
1.931336767e-27
1.941435437e-27
1.952131791e-27
1.963458115e-27
1.975448089e-27
1.988136829e-27
2.001560915e-27
2.015758424e-27
2.030768959e-27
2.046633678e-27
2.06339532e-27
2.08109823e-27
2.099788379e-27
2.119513387e-27
2.140322537e-27
2.162266794e-27
2.185398811e-27
2.209772942e-27
2.235445244e-27
2.262473483e-27
2.290917126e-27
2.320837341e-27
2.352296984e-27
2.385360586e-27
2.420094335e-27
2.456566052e-27
2.494845166e-27
2.535002679e-27
2.577111133e-27
2.621244566e-27
2.667478463e-27
2.715889711e-27
2.766556535e-27
2.819558441e-27
2.874976144e-27
2.932891503e-27
2.993387437e-27
3.056547845e-27
3.122457518e-27
3.191202049e-27
3.262867734e-27
3.337541468e-27
3.415310645e-27
3.496263041e-27
3.580486702e-27
3.668069828e-27
3.759100647e-27
3.85366729e-27
3.951857665e-27
4.053759326e-27
4.159459335e-27
4.269044132e-27
4.382599393e-27
4.500209898e-27
4.621959383e-27
4.74793041e-27
4.878204223e-27
5.012860606e-27
5.151977755e-27
5.295632132e-27
5.443898338e-27
5.596848979e-27
5.754554538e-27
5.917083253e-27
6.084500993e-27
6.256871147e-27
6.434254514e-27
6.616709194e-27
6.804290497e-27
6.997050851e-27
7.195039718e-27
7.398303518e-27
7.606885569e-27
7.820826023e-27
8.040161825e-27
8.264926674e-27
8.495150997e-27
8.730861936e-27
8.972083341e-27
9.218835788e-27
9.47113659e-27
9.728999845e-27
9.992436472e-27
1.026145429e-26
1.053605807e-26
1.081624966e-26
1.110202807e-26
1.139338962e-26
1.169032802e-26
1.199283462e-26
1.230089851e-26
1.261450672e-26
1.293364446e-26
1.325829533e-26
1.358844156e-26
1.392406428e-26
1.426514379e-26
1.461165988e-26
1.496359216e-26
1.532092037e-26
1.568362478e-26
1.605168656e-26
1.642508816e-26
1.680381381e-26
1.718784989e-26
1.757718547e-26
1.797181277e-26
1.83717277e-26
1.877693041e-26
1.918742585e-26
1.960322437e-26
2.002434236e-26
2.045080289e-26
2.088263641e-26
2.131988141e-26
2.176258523e-26
2.221080475e-26
2.266460725e-26
2.312407123e-26
2.358928724e-26
2.406035882e-26
2.453740342e-26
2.502055339e-26
2.550995696e-26
2.600577935e-26
2.650820383e-26
2.701743295e-26
2.753368972e-26
2.805721896e-26
2.858828881e-26
2.912719237e-26
2.967424969e-26
3.02298101e-26
3.079425426e-26
3.136799406e-26
3.19514678e-26
3.254513501e-26
3.314948299e-26
3.376502649e-26
3.439230346e-26
3.503189215e-26
3.568441748e-26
3.635055157e-26
3.703101423e-26
3.772657455e-26
3.843805331e-26
3.916632577e-26
3.991232525e-26
4.067704838e-26
4.146155976e-26
4.226698609e-26
4.30944948e-26
4.394531667e-26
4.482075698e-26
4.572219037e-26
4.665104822e-26
4.760881826e-26
4.859705661e-26
4.961739821e-26
5.067156194e-26
5.17613533e-26
5.288866652e-26
5.405548696e-26
5.526389379e-26
5.651606307e-26
5.7814271e-26
5.916089734e-26
6.055842913e-26
6.200946444e-26
6.351671639e-26
6.508301736e-26
6.671132332e-26
6.840471843e-26
7.016641988e-26
7.19997829e-26
7.390830611e-26
7.589563706e-26
7.796557817e-26
8.012209288e-26
8.236931224e-26
8.471154179e-26
8.71532689e-26
8.969917051e-26
9.23541213e-26
9.512320243e-26
9.801171076e-26
1.010251686e-25
1.041693344e-25
1.074502134e-25
1.108740701e-25
1.144474405e-25
1.181771458e-25
1.220703075e-25
1.261343625e-25
1.303770806e-25
1.348065829e-25
1.394313623e-25
1.442603056e-25
1.493027186e-25
1.545683533e-25
1.600674393e-25
1.658107193e-25
1.718094899e-25
1.780756488e-25
1.84621751e-25
1.914610752e-25
1.986077036e-25
2.060766191e-25
2.138838253e-25
2.220464939e-25
2.305831501e-25
2.395139057e-25
2.488607535e-25
2.586479436e-25
2.689024636e-25
2.796546559e-25
2.909390127e-25
3.027952033e-25
3.152694044e-25
3.28416025e-25
3.422999482e-25
3.569994474e-25
3.726099833e-25
3.892491543e-25
4.070631543e-25
4.262352018e-25
4.469965527e-25
4.696408922e-25
4.945431573e-25
5.221841647e-25
5.531828528e-25
5.883385172e-25
6.286861682e-25
6.755691362e-25
7.307343672e-25
7.964575961e-25
8.757079131e-25
9.723643346e-25
1.091501131e-24
1.239764217e-24
1.425868383e-24
1.661255224e-24
1.960965312e-24
2.344796778e-24
2.838847974e-24
3.477576984e-24
4.306559307e-24
5.386192649e-24
6.796692518e-24
8.644855873e-24
1.107325977e-23
1.427283307e-23
1.850012945e-23
2.410119547e-23
3.154475232e-23
4.146862159e-23
5.474511608e-23
7.257378105e-23
9.661385853e-23
1.291748516e-22
1.734926605e-22
2.341326183e-22
3.175819844e-22
4.331271705e-22
5.941616638e-22
8.20149588e-22
1.139593519e-21
1.594549835e-21
2.247542369e-21
3.192210336e-21
4.569790617e-21
6.594744722e-21
9.594768531e-21
1.407348435e-20
2.080896419e-20
3.100892279e-20
4.655564226e-20
7.03931934e-20
1.071408335e-19
1.640671557e-19
2.526424643e-19
3.910239262e-19
6.080573964e-19
9.497683629e-19
1.489981224e-18
2.347865234e-18
3.717246233e-18
5.916159675e-18
9.471671748e-18
1.526691606e-17
2.479918045e-17
4.063840384e-17
6.72511062e-17
1.124972677e-16
1.903784202e-16
3.261338599e-16
5.65780868e-16
9.941199938e-16
1.768914281e-15
3.185927665e-15
5.802481653e-15
1.067088953e-14
1.977583893e-14
3.684652617e-14
6.885401281e-14
1.287664247e-13
2.406458459e-13
4.491905007e-13
8.378297933e-13
1.563226096e-12
2.920737136e-12
5.467500668e-12
1.02519714e-11
1.92368134e-11
3.606405451e-11
6.741105551e-11
1.253399532e-10
2.312691712e-10
4.225087493e-10
7.626760402e-10
1.358120063e-09
2.381691897e-09
4.112252361e-09
6.984350966e-09
1.166818229e-08
1.912677506e-08
3.07510767e-08
4.86420044e-08
7.57834691e-08
1.163608679e-07
1.761865589e-07
2.633454156e-07
3.89344072e-07
5.706615571e-07
8.306973855e-07
1.202127829e-06
1.733396667e-06
2.475564512e-06
3.509444029e-06
4.932509261e-06
6.878120921e-06
9.474225465e-06
1.291256043e-05
1.740669941e-05
2.32293451e-05
3.06049879e-05
3.982987081e-05
5.116518385e-05
6.483214909e-05
8.097374259e-05
9.963939568e-05
0.0001208234523
0.0001441934732
0.0001694918083
0.0001961454268
0.0002236009513
0.0002511865072
0.0002782143706
0.0003040351889
0.0003282169402
0.0003502704319
0.0003697872282
0.0003865801998
0.0004005888522
0.0004118557071
0.00042050516
0.0004267117862
0.0004306866065
0.0004326838171
0.0004329356689
0.0004316811406
0.0004291153615
0.0004254517472
0.0004208737504
0.0004155449601
0.0004096096725
0.0004031942087
0.0003964120809
0.0003893510789
0.0003820961452
0.0003747165225
0.0003672706818
0.0003598075997
0.000352367952
0.0003449852091
0.0003376866267
0.0003304941311
0.0003234251033
0.0003164930665
0.0003097082856
0.0003030782874
0.0002966083084
0.0002903016792
0.0002841601534
0.000278184188
0.0002723731814
0.0002667256746
0.0002612395212
0.0002559120302
0.0002507400867
0.0002457202512
0.000240848844
0.0002361220143
0.0002315357973
0.0002270861621
0.0002227690496
0.0002185804045
0.0002145162004
0.0002105724604
0.0002067452727
0.0002030308037
0.0001994253071
0.0001959251314
0.0001925267246
0.0001892266381
0.0001860215285
0.0001829081585
0.0001798833971
0.0001769442189
0.0001740877026
0.0001713110296
0.0001686114817
0.0001659864388
0.0001634333762
0.000160949862
0.0001585335543
0.0001561821982
0.0001538936232
0.0001516657398
0.000149496537
0.0001473840793
0.000145326504
0.0001433220182
0.0001413688964
0.0001394654779
0.0001376101642
0.0001358014162
0.0001340377526
0.0001323177468
0.0001306400254
0.0001290032655
0.0001274061932
0.0001258475811
0.0001243262468
0.000122841051
0.0001213908956
0.0001199747224
0.000118591511
0.0001172402778
0.0001159200741
0.0001146299851
0.000113369128
0.0001121366514
0.0001109317334
0.0001097535809
0.0001086014283
0.0001074745364
0.0001063721914
0.0001052937037
0.0001042384074
0.000103205659
0.0001021948367
0.0001012053393
0.000100236586
9.928801484e-05
9.835908268e-05
9.744926406e-05
9.655805067e-05
9.568495071e-05
9.482948825e-05
9.399120263e-05
9.316964791e-05
9.236439232e-05
9.157501773e-05
9.080111916e-05
9.004230428e-05
8.929819298e-05
8.85684169e-05
8.785261901e-05
8.715045322e-05
8.646158397e-05
8.578568587e-05
8.512244334e-05
8.447155023e-05
8.383270954e-05
8.320563307e-05
8.259004112e-05
8.198566218e-05
8.139223269e-05
8.080949673e-05
8.023720575e-05
7.967511838e-05
7.91230001e-05
7.858062308e-05
7.804776594e-05
7.752421351e-05
7.700975664e-05
7.650419201e-05
7.600732193e-05
7.551895413e-05
7.503890165e-05
7.456698258e-05
7.410301999e-05
7.364684168e-05
7.31982801e-05
7.275717215e-05
7.23233591e-05
7.189668637e-05
7.147700347e-05
7.106416384e-05
7.065802474e-05
7.025844713e-05
6.986529552e-05
6.947843794e-05
6.909774575e-05
6.872309359e-05
6.835435926e-05
6.799142364e-05
6.763417057e-05
6.72824868e-05
6.693626187e-05
6.659538804e-05
6.625976022e-05
6.592927588e-05
6.560383497e-05
6.528333986e-05
6.496769527e-05
6.46568082e-05
6.435058787e-05
6.404894563e-05
6.375179493e-05
6.345905126e-05
6.317063208e-05
6.288645675e-05
6.260644652e-05
6.233052443e-05
6.20586153e-05
6.179064567e-05
6.152654372e-05
6.126623927e-05
6.100966373e-05
6.075675002e-05
6.050743256e-05
6.026164724e-05
6.001933135e-05
5.978042356e-05
5.954486389e-05
5.931259365e-05
5.908355544e-05
5.885769308e-05
5.863495161e-05
5.841527724e-05
5.819861733e-05
5.798492033e-05
5.777413582e-05
5.75662144e-05
5.736110773e-05
5.715876845e-05
5.695915021e-05
5.676220759e-05
5.656789612e-05
5.637617223e-05
5.618699324e-05
5.600031734e-05
5.581610355e-05
5.563431173e-05
5.545490253e-05
5.527783738e-05
5.510307851e-05
5.493058884e-05
5.476033206e-05
5.459227257e-05
5.442637544e-05
5.426260643e-05
5.410093197e-05
5.394131914e-05
5.378373562e-05
5.362814973e-05
5.347453041e-05
5.332284715e-05
5.317307003e-05
5.302516971e-05
5.287911737e-05
5.273488475e-05
5.259244409e-05
5.245176817e-05
5.231283025e-05
5.217560409e-05
5.204006392e-05
5.190618445e-05
5.177394084e-05
5.164330869e-05
5.151426406e-05
5.138678341e-05
5.126084365e-05
5.113642207e-05
5.101349638e-05
5.089204468e-05
5.077204545e-05
5.065347754e-05
5.053632018e-05
5.042055295e-05
5.030615579e-05
5.019310898e-05
5.008139314e-05
4.997098922e-05
4.986187848e-05
4.975404253e-05
4.964746326e-05
4.954212288e-05
4.943800389e-05
4.933508908e-05
4.923336154e-05
4.913280461e-05
4.903340195e-05
4.893513744e-05
4.883799527e-05
4.874195984e-05
4.864701585e-05
4.855314821e-05
4.84603421e-05
4.836858292e-05
4.827785631e-05
4.818814815e-05
4.809944452e-05
4.801173175e-05
4.792499636e-05
4.78392251e-05
4.775440492e-05
4.767052297e-05
4.758756661e-05
4.750552338e-05
4.742438104e-05
4.73441275e-05
4.72647509e-05
4.718623953e-05
4.710858187e-05
4.703176656e-05
4.695578244e-05
4.68806185e-05
4.68062639e-05
4.673270795e-05
4.665994015e-05
4.658795012e-05
4.651672766e-05
4.644626272e-05
4.637654538e-05
4.630756589e-05
4.623931462e-05
4.617178209e-05
4.610495897e-05
4.603883605e-05
4.597340426e-05
4.590865465e-05
4.584457842e-05
4.578116689e-05
4.571841148e-05
4.565630376e-05
4.559483542e-05
4.553399825e-05
4.547378417e-05
4.541418521e-05
4.53551935e-05
4.529680131e-05
4.523900099e-05
4.518178501e-05
4.512514593e-05
4.506907645e-05
4.501356932e-05
4.495861743e-05
4.490421375e-05
4.485035135e-05
4.47970234e-05
4.474422315e-05
4.469194396e-05
4.464017926e-05
4.458892258e-05
4.453816755e-05
4.448790786e-05
4.44381373e-05
4.438884974e-05
4.434003914e-05
4.429169953e-05
4.424382502e-05
4.419640981e-05
4.414944816e-05
4.410293442e-05
4.4056863e-05
4.401122841e-05
4.39660252e-05
4.3921248e-05
4.387689154e-05
4.383295058e-05
4.378941997e-05
4.374629461e-05
4.370356948e-05
4.366123964e-05
4.361930017e-05
4.357774625e-05
4.353657312e-05
4.349577606e-05
4.345535043e-05
4.341529165e-05
4.337559517e-05
4.333625654e-05
4.329727133e-05
4.32586352e-05
4.322034383e-05
4.318239298e-05
4.314477846e-05
4.310749612e-05
4.307054188e-05
4.30339117e-05
4.299760159e-05
4.296160761e-05
4.292592589e-05
4.289055258e-05
4.285548388e-05
4.282071607e-05
4.278624543e-05
4.275206832e-05
4.271818114e-05
4.268458033e-05
4.265126237e-05
4.261822378e-05
4.258546114e-05
4.255297106e-05
4.25207502e-05
4.248879525e-05
4.245710295e-05
4.242567008e-05
4.239449344e-05
4.236356991e-05
4.233289637e-05
4.230246975e-05
4.227228703e-05
4.22423452e-05
4.221264133e-05
4.218317247e-05
4.215393576e-05
4.212492834e-05
4.209614739e-05
4.206759013e-05
4.203925382e-05
4.201113575e-05
4.198323322e-05
4.19555436e-05
4.192806427e-05
4.190079264e-05
4.187372616e-05
4.184686231e-05
4.182019859e-05
4.179373254e-05
4.176746173e-05
4.174138375e-05
4.171549624e-05
4.168979684e-05
4.166428324e-05
4.163895315e-05
4.16138043e-05
4.158883445e-05
4.156404141e-05
4.153942297e-05
4.1514977e-05
4.149070136e-05
4.146659393e-05
4.144265265e-05
4.141887545e-05
4.139526029e-05
4.137180519e-05
4.134850813e-05
4.132536718e-05
4.130238038e-05
4.127954583e-05
4.125686163e-05
4.12343259e-05
4.12119368e-05
4.11896925e-05
4.11675912e-05
4.114563111e-05
4.112381045e-05
4.11021275e-05
4.108058051e-05
4.10591678e-05
4.103788767e-05
4.101673845e-05
4.099571849e-05
4.097482618e-05
4.095405989e-05
4.093341804e-05
4.091289904e-05
4.089250134e-05
4.087222341e-05
4.085206371e-05
4.083202074e-05
4.0812093e-05
4.079227904e-05
4.077257737e-05
4.075298657e-05
4.073350521e-05
4.071413187e-05
4.069486515e-05
4.067570368e-05
4.065664608e-05
4.0637691e-05
4.061883709e-05
4.060008304e-05
4.058142752e-05
4.056286924e-05
4.05444069e-05
4.052603924e-05
4.050776498e-05
4.048958289e-05
4.047149171e-05
4.045349022e-05
4.043557721e-05
4.041775146e-05
4.040001179e-05
4.038235702e-05
4.036478596e-05
4.034729746e-05
4.032989036e-05
4.031256352e-05
4.029531582e-05
4.027814611e-05
4.02610533e-05
4.024403627e-05
4.022709394e-05
4.02102252e-05
4.019342899e-05
4.017670422e-05
4.016004985e-05
4.014346481e-05
4.012694807e-05
4.011049857e-05
4.009411529e-05
4.007779721e-05
4.00615433e-05
4.004535258e-05
4.002922402e-05
4.001315665e-05
3.999714946e-05
3.99812015e-05
3.996531179e-05
3.994947936e-05
3.993370326e-05
3.991798254e-05
3.990231628e-05
3.988670353e-05
3.987114338e-05
3.985563493e-05
3.984017728e-05
3.982476953e-05
3.980941082e-05
3.979410028e-05
3.977883707e-05
3.976362035e-05
3.974844931e-05
3.973332314e-05
3.971824105e-05
3.970320228e-05
3.968820606e-05
3.967325165e-05
3.96583383e-05
3.964346528e-05
3.962863182e-05
3.961383716e-05
3.959908045e-05
3.958436081e-05
3.956967721e-05
3.955502851e-05
3.954041334e-05
3.942172782e-05
3.92375532e-05
3.906477216e-05
3.890264068e-05
3.875021742e-05
3.860665321e-05
3.84711803e-05
3.834308164e-05
3.82216695e-05
3.810627106e-05
3.799621883e-05
3.789084422e-05
3.778947338e-05
3.769142479e-05
3.75960082e-05
3.75025247e-05
3.741026793e-05
3.731852611e-05
3.722658503e-05
3.713373163e-05
3.703925839e-05
3.694246812e-05
3.684267931e-05
3.673923185e-05
3.66314929e-05
3.65188631e-05
3.640078269e-05
3.62767377e-05
3.614626583e-05
3.600896231e-05
3.586448515e-05
3.571256008e-05
3.555298484e-05
3.538563286e-05
3.521045611e-05
3.502748721e-05
3.483684052e-05
3.463871235e-05
3.443338016e-05
3.422120068e-05
3.400260706e-05
3.377810494e-05
3.354826756e-05
3.331372992e-05
3.307518212e-05
3.283336184e-05
3.258904624e-05
3.23430433e-05
3.209618277e-05
3.184930692e-05
3.160326115e-05
3.135888477e-05
3.111700193e-05
3.087841306e-05
3.064388677e-05
3.041415243e-05
3.018989361e-05
2.997174223e-05
2.97602738e-05
2.955600353e-05
2.935938346e-05
2.917080055e-05
2.89905758e-05
2.88189641e-05
2.865615509e-05
2.850227469e-05
2.835738733e-05
2.822149872e-05
2.809455913e-05
2.797646706e-05
2.786707314e-05
2.776618431e-05
2.767356803e-05
2.758895661e-05
2.751205145e-05
2.744252729e-05
2.738003631e-05
2.732421206e-05
2.72746733e-05
2.723102765e-05
2.719287507e-05
2.715981112e-05
2.713143021e-05
2.710732847e-05
2.708710676e-05
2.707037324e-05
2.705674611e-05
2.704585595e-05
2.703734812e-05
2.703088491e-05
2.702614753e-05
2.702283793e-05
2.702068039e-05
2.701942287e-05
2.701883801e-05
2.701872392e-05
2.701890457e-05
2.701922978e-05
2.701957493e-05
2.701984019e-05
2.701994947e-05
2.701984889e-05
2.701950509e-05
2.701890307e-05
2.701804396e-05
2.70169425e-05
2.70156245e-05
2.701412417e-05
2.701248161e-05
2.701074025e-05
2.70089446e-05
2.700713816e-05
2.700536159e-05
2.700365126e-05
2.700203805e-05
2.700054658e-05
2.69991947e-05
2.699799344e-05
2.69969471e-05
2.699605375e-05
2.699530588e-05
2.699469126e-05
2.699419389e-05
2.699379506e-05
2.699347442e-05
2.699321097e-05
2.699298407e-05
2.699277424e-05
2.699256392e-05
2.699233799e-05
2.699208418e-05
2.699179331e-05
2.699145934e-05
2.699107927e-05
2.699065297e-05
2.699018283e-05
2.698967338e-05
2.698913083e-05
2.698856259e-05
2.69879768e-05
2.698738188e-05
2.69867861e-05
2.698619724e-05
2.698562228e-05
2.698506721e-05
2.698453686e-05
2.698403484e-05
2.698356356e-05
2.698312424e-05
2.698271706e-05
2.698234127e-05
2.698199539e-05
2.698167733e-05
2.698138462e-05
2.698111456e-05
2.698086434e-05
2.698063124e-05
2.698041268e-05
2.698020632e-05
2.69800101e-05
2.69798223e-05
2.697964151e-05
2.697946662e-05
2.697929684e-05
2.697913161e-05
2.697897059e-05
2.697881364e-05
2.697866074e-05
2.697851199e-05
2.697836756e-05
2.69782277e-05
2.697809268e-05
2.697796284e-05
2.697783853e-05
2.697772014e-05
2.697760809e-05
2.697750282e-05
2.69774048e-05
2.697731452e-05
2.697723248e-05
2.697715918e-05
2.697709511e-05
2.697704073e-05
2.697699646e-05
2.697696263e-05
2.697693951e-05
2.697692725e-05
2.697692589e-05
2.697693535e-05
2.697695539e-05
2.697698565e-05
2.697702562e-05
2.697707465e-05
2.697713195e-05
2.697719665e-05
2.697726772e-05
2.697734408e-05
2.697742458e-05
2.6977508e-05
2.697759312e-05
2.697767867e-05
2.697776343e-05
2.697784619e-05
2.697792581e-05
2.697800118e-05
2.69780713e-05
2.697813525e-05
2.697819221e-05
2.697824148e-05
2.697828248e-05
2.697831474e-05
2.697833791e-05
2.697835178e-05
2.697835623e-05
2.69783513e-05
2.69783371e-05
2.697831385e-05
2.697828187e-05
2.697824157e-05
2.69781934e-05
2.697813791e-05
2.697807569e-05
2.697800734e-05
2.697793353e-05
2.697785494e-05
2.697777224e-05
2.697768614e-05
2.697759731e-05
2.697750643e-05
2.697741415e-05
2.697732112e-05
2.697722795e-05
2.697713521e-05
2.697704345e-05
2.69769532e-05
2.697686491e-05
2.697677904e-05
2.697669597e-05
2.697661605e-05
2.69765396e-05
2.697646688e-05
2.697639811e-05
2.697633348e-05
2.697627311e-05
2.697621711e-05
2.697616557e-05
2.697611858e-05
2.697607647e-05
2.697604041e-05
2.697601455e-05
)
;

boundaryField
{
    inlet
    {
        type            fixedValue;
        value           uniform 0;
    }
    outlet
    {
        type            zeroGradient;
    }
    wall
    {
        type            empty;
    }
}


// ************************************************************************* //
