/*--------------------------------*- C++ -*----------------------------------*\
  =========                 |
  \\      /  F ield         | OpenFOAM: The Open Source CFD Toolbox
   \\    /   O peration     | Website:  https://openfoam.org
    \\  /    A nd           | Version:  7
     \\/     M anipulation  |
\*---------------------------------------------------------------------------*/
FoamFile
{
    version     2.0;
    format      ascii;
    class       volScalarField;
    location    "0.000558243009";
    object      O2;
}
// * * * * * * * * * * * * * * * * * * * * * * * * * * * * * * * * * * * * * //

dimensions      [0 0 0 0 0 0 0];

internalField   nonuniform List<scalar> 
1500
(
0.01142893498
0.04481722113
0.09270642604
0.1398531441
0.1755806851
0.1977968165
0.209564247
0.2149995414
0.2172253994
0.2180442276
0.2183177908
0.2184015676
0.2184252717
0.2184315103
0.2184330465
0.2184334022
0.21843348
0.2184334961
0.2184334993
0.2184334999
0.2184335
0.2184335
0.2184335
0.2184335
0.2184335
0.2184335
0.2184335
0.2184335
0.2184335
0.2184335
0.2184335
0.2184335
0.2184335
0.2184335
0.2184335
0.2184335
0.2184335
0.2184335
0.2184335
0.2184335
0.2184335
0.2184335
0.2184335
0.2184335
0.2184335
0.2184335
0.2184335
0.2184335
0.2184335
0.2184335
0.2184335
0.2184335
0.2184335
0.2184335
0.2184335
0.2184335
0.2184335
0.2184335
0.2184335
0.2184335
0.2184335
0.2184335
0.2184335
0.2184335
0.2184335
0.2184335
0.2184335
0.2184335
0.2184335
0.2184335
0.2184335
0.2184335
0.2184335
0.2184335
0.2184335
0.2184335
0.2184335
0.2184335
0.2184335
0.2184335
0.2184335
0.2184335
0.2184335
0.2184335
0.2184335
0.2184335
0.2184335
0.2184335
0.2184335
0.2184335
0.2184335
0.2184335
0.2184335
0.2184335
0.2184335
0.2184335
0.2184335
0.2184335
0.2184335
0.2184335
0.2184335
0.2184335
0.2184335
0.2184335
0.2184335
0.2184335
0.2184335
0.2184335
0.2184335
0.2184335
0.2184335
0.2184335
0.2184335
0.2184335
0.2184335
0.2184335
0.2184335
0.2184335
0.2184335
0.2184335
0.2184335
0.2184335
0.2184335
0.2184335
0.2184335
0.2184335
0.2184335
0.2184335
0.2184335
0.2184335
0.2184335
0.2184335
0.2184335
0.2184335
0.2184335
0.2184335
0.2184335
0.2184335
0.2184335
0.2184335
0.2184335
0.2184335
0.2184335
0.2184335
0.2184335
0.2184335
0.2184335
0.2184335
0.2184335
0.2184335
0.2184335
0.2184335
0.2184335
0.2184335
0.2184335
0.2184335
0.2184335
0.2184335
0.2184335
0.2184335
0.2184335
0.2184335
0.2184335
0.2184335
0.2184335
0.2184335
0.2184335
0.2184335
0.2184335
0.2184335
0.2184335
0.2184335
0.2184335
0.2184335
0.2184335
0.2184335
0.2184335
0.2184335
0.2184335
0.2184335
0.2184335
0.2184335
0.2184335
0.2184335
0.2184335
0.2184335
0.2184335
0.2184335
0.2184335
0.2184335
0.2184335
0.2184335
0.2184335
0.2184335
0.2184335
0.2184335
0.2184335
0.2184335
0.2184335
0.2184335
0.2184335
0.2184335
0.2184335
0.2184335
0.2184335
0.2184335
0.2184335
0.2184335
0.2184335
0.2184335
0.2184335
0.2184335
0.2184335
0.2184335
0.2184335
0.2184335
0.2184335
0.2184335
0.2184335
0.2184335
0.2184335
0.2184335
0.2184335
0.2184335
0.2184335
0.2184335
0.2184335
0.2184335
0.2184335
0.2184335
0.2184335
0.2184335
0.2184335
0.2184335
0.2184335
0.2184335
0.2184335
0.2184335
0.2184335
0.2184334999
0.2184334999
0.2184334999
0.2184334998
0.2184334997
0.2184334996
0.2184334995
0.2184334993
0.218433499
0.2184334989
0.2184334989
0.2184334978
0.2184334977
0.2184334977
0.2184334976
0.2184334976
0.2184334975
0.2184334974
0.2184334974
0.2184334973
0.2184334972
0.2184334972
0.2184334971
0.218433497
0.218433497
0.2184334969
0.2184334968
0.2184334967
0.2184334966
0.2184334966
0.2184334965
0.2184334964
0.2184334963
0.2184334962
0.2184334961
0.218433496
0.2184334959
0.2184334958
0.2184334957
0.2184334956
0.2184334955
0.2184334954
0.2184334953
0.2184334952
0.2184334951
0.218433495
0.2184334949
0.2184334947
0.2184334946
0.2184334945
0.2184334944
0.2184334942
0.2184334941
0.2184334939
0.2184334938
0.2184334937
0.2184334935
0.2184334934
0.2184334932
0.2184334931
0.2184334929
0.2184334927
0.2184334926
0.2184334924
0.2184334922
0.218433492
0.2184334919
0.2184334917
0.2184334915
0.2184334913
0.2184334911
0.2184334909
0.2184334907
0.2184334905
0.2184334903
0.21843349
0.2184334898
0.2184334896
0.2184334894
0.2184334891
0.2184334889
0.2184334886
0.2184334884
0.2184334881
0.2184334879
0.2184334876
0.2184334873
0.2184334871
0.2184334868
0.2184334865
0.2184334862
0.2184334859
0.2184334856
0.2184334853
0.218433485
0.2184334846
0.2184334843
0.218433484
0.2184334836
0.2184334833
0.2184334829
0.2184334826
0.2184334822
0.2184334818
0.2184334814
0.218433481
0.2184334806
0.2184334802
0.2184334798
0.2184334794
0.2184334789
0.2184334785
0.218433478
0.2184334776
0.2184334771
0.2184334766
0.2184334762
0.2184334757
0.2184334752
0.2184334746
0.2184334741
0.2184334736
0.218433473
0.2184334725
0.2184334719
0.2184334713
0.2184334708
0.2184334702
0.2184334695
0.2184334689
0.2184334683
0.2184334677
0.218433467
0.2184334663
0.2184334656
0.218433465
0.2184334642
0.2184334635
0.2184334628
0.2184334621
0.2184334613
0.2184334605
0.2184334597
0.2184334589
0.2184334581
0.2184334573
0.2184334564
0.2184334556
0.2184334547
0.2184334538
0.2184334529
0.218433452
0.218433451
0.2184334501
0.2184334491
0.2184334481
0.2184334471
0.2184334461
0.218433445
0.2184334439
0.2184334429
0.2184334418
0.2184334406
0.2184334395
0.2184334383
0.2184334371
0.2184334359
0.2184334347
0.2184334334
0.2184334322
0.2184334309
0.2184334295
0.2184334282
0.2184334268
0.2184334254
0.218433424
0.2184334226
0.2184334211
0.2184334196
0.2184334181
0.2184334166
0.218433415
0.2184334134
0.2184334118
0.2184334101
0.2184334084
0.2184334067
0.218433405
0.2184334032
0.2184334014
0.2184333995
0.2184333976
0.2184333957
0.2184333938
0.2184333918
0.2184333898
0.2184333877
0.2184333856
0.2184333835
0.2184333814
0.2184333792
0.2184333769
0.2184333746
0.2184333723
0.2184333699
0.2184333675
0.2184333651
0.2184333626
0.21843336
0.2184333574
0.2184333548
0.2184333521
0.2184333493
0.2184333465
0.2184333437
0.2184333408
0.2184333378
0.2184333348
0.2184333318
0.2184333286
0.2184333254
0.2184333222
0.2184333189
0.2184333155
0.2184333121
0.2184333086
0.218433305
0.2184333014
0.2184332976
0.2184332938
0.21843329
0.218433286
0.218433282
0.2184332779
0.2184332737
0.2184332695
0.2184332651
0.2184332607
0.2184332561
0.2184332515
0.2184332468
0.218433242
0.218433237
0.218433232
0.2184332269
0.2184332216
0.2184332163
0.2184332108
0.2184332053
0.2184331995
0.2184331937
0.2184331878
0.2184331817
0.2184331755
0.2184331691
0.2184331626
0.218433156
0.2184331492
0.2184331423
0.2184331352
0.2184331279
0.2184331205
0.2184331129
0.2184331051
0.2184330972
0.218433089
0.2184330807
0.2184330722
0.2184330635
0.2184330545
0.2184330454
0.218433036
0.2184330264
0.2184330166
0.2184330066
0.2184329963
0.2184329857
0.2184329749
0.2184329638
0.2184329524
0.2184329408
0.2184329289
0.2184329166
0.2184329041
0.2184328912
0.218432878
0.2184328645
0.2184328506
0.2184328364
0.2184328218
0.2184328068
0.2184327914
0.2184327756
0.2184327594
0.2184327428
0.2184327257
0.2184327081
0.2184326901
0.2184326716
0.2184326526
0.2184326331
0.218432613
0.2184325924
0.2184325712
0.2184325495
0.2184325271
0.2184325041
0.2184324804
0.2184324561
0.218432431
0.2184324053
0.2184323788
0.2184323516
0.2184323235
0.2184322946
0.2184322649
0.2184322342
0.2184322027
0.2184321702
0.2184321367
0.2184321022
0.2184320666
0.2184320299
0.218431992
0.2184319529
0.2184319126
0.218431871
0.2184318279
0.2184317834
0.2184317375
0.2184316899
0.2184316407
0.2184315897
0.2184315369
0.2184314822
0.2184314254
0.2184313664
0.2184313052
0.2184312416
0.2184311753
0.2184311063
0.2184310344
0.2184309594
0.2184308811
0.2184307991
0.2184307133
0.2184306234
0.2184305289
0.2184304297
0.2184303252
0.2184302151
0.2184300988
0.2184299759
0.2184298456
0.2184297073
0.2184295603
0.2184294038
0.2184292367
0.2184290581
0.2184288668
0.2184286615
0.2184284407
0.2184282027
0.2184279459
0.2184276681
0.218427367
0.2184270401
0.2184266844
0.2184262968
0.2184258736
0.2184254107
0.2184249037
0.2184243472
0.2184237357
0.2184230626
0.2184223206
0.2184215016
0.2184205965
0.2184195948
0.218418485
0.2184172541
0.2184158875
0.2184143686
0.218412679
0.2184107978
0.2184087017
0.2184063642
0.2184037559
0.2184008434
0.2183975894
0.2183939516
0.2183898828
0.2183853298
0.2183802326
0.2183745241
0.2183681285
0.2183609608
0.2183529254
0.2183439148
0.2183338081
0.2183224698
0.2183097474
0.2182954697
0.2182794445
0.2182614559
0.2182412618
0.2182185908
0.2181931383
0.2181645632
0.2181324833
0.2180964711
0.2180560482
0.2180106801
0.2179597702
0.2179026527
0.2178385862
0.2177667457
0.2176862143
0.2175959752
0.2174949024
0.2173817512
0.2172551493
0.2171135868
0.2169554072
0.2167787983
0.2165817841
0.2163622176
0.2161177748
0.2158459515
0.215544061
0.2152092357
0.2148384314
0.2144284355
0.2139758786
0.2134772508
0.2129289221
0.2123271669
0.2116681919
0.2109481684
0.2101632659
0.2093096886
0.2083837121
0.2073817202
0.20630024
0.2051359748
0.203885834
0.2025469589
0.2011167437
0.1995928521
0.1979732293
0.1962561083
0.1944400134
0.1925237585
0.1905064426
0.1883874417
0.1861663955
0.1838431842
0.181417899
0.1788911354
0.1762620921
0.1735334374
0.1706992081
0.1677616941
0.1647228991
0.1616149698
0.1584223235
0.1551490936
0.1517998426
0.1483780623
0.144885406
0.1413201346
0.137679518
0.1339624211
0.1301681724
0.1262950806
0.1223045966
0.118273058
0.1141619177
0.1099740231
0.1056812561
0.1013555801
0.09697350141
0.09254896573
0.08807387649
0.0836165235
0.07917598438
0.07478023252
0.07045915465
0.06624373158
0.06216519365
0.05823680433
0.05451698863
0.05100009533
0.04772220936
0.04468136672
0.04187912264
0.03931106301
0.0369680286
0.03481940127
0.03285569571
0.03107321901
0.02945569169
0.02798699193
0.02665181077
0.02543592539
0.02432638544
0.02331154338
0.02238169933
0.02153969965
0.02076393801
0.02004076263
0.01937258663
0.01875355465
0.01817843256
0.0176426445
0.01714222467
0.01667412503
0.01623462419
0.01582148117
0.01543239114
0.01506531078
0.01471841982
0.01439009046
0.01407886227
0.01378342135
0.0135025827
0.01323527518
0.01298052843
0.01273746171
0.01250527397
0.0122832353
0.01207067936
0.01186699675
0.01167162916
0.0114840642
0.01130383085
0.01113049541
0.0109636579
0.01080294887
0.01064802658
0.01049857446
0.01035429884
0.01021492692
0.01008020497
0.009949896694
0.009823781752
0.009701654453
0.00958332255
0.009468606165
0.00935733681
0.009249356503
0.009144516955
0.009042678846
0.008943711151
0.008847490534
0.008753900788
0.008662832329
0.008574181729
0.008487851287
0.008403748636
0.008321786386
0.008241881786
0.008163956422
0.008087935935
0.008013749758
0.007941330877
0.007870615607
0.007801543389
0.007734056594
0.00766810035
0.007603622376
0.007540572827
0.007478904157
0.007418570979
0.007359529951
0.007301739651
0.007245160478
0.007189754547
0.007135485599
0.007082318909
0.007030221206
0.0069791606
0.006929106504
0.00688002957
0.006831901626
0.006784695614
0.006738385538
0.006692946407
0.00664835419
0.006604585766
0.006561618882
0.006519432113
0.006478004819
0.006437317113
0.006397349821
0.006358084456
0.006319503181
0.006281588783
0.006244324644
0.006207694714
0.006171683491
0.006136275989
0.006101457723
0.006067214687
0.006033533329
0.006000400537
0.005967803618
0.005935730284
0.005904168631
0.005873107127
0.005842534597
0.005812440207
0.005782813453
0.005753644145
0.005724922398
0.005696638619
0.005668783496
0.005641347988
0.005614323314
0.005587700942
0.005561472586
0.005535630188
0.005510165918
0.00548507216
0.005460341507
0.005435966756
0.005411940895
0.005388257101
0.005364908733
0.005341889322
0.005319192571
0.005296812346
0.005274742669
0.005252977716
0.00523151181
0.005210339419
0.005189455146
0.005168853729
0.005148530036
0.00512847906
0.005108695916
0.005089175836
0.005069914165
0.005050906361
0.005032147988
0.005013634712
0.004995362302
0.004977326624
0.00495952364
0.004941949401
0.004924600051
0.004907471818
0.004890561016
0.004873864038
0.004857377361
0.004841097535
0.004825021187
0.004809145017
0.004793465795
0.004777980361
0.004762685622
0.004747578548
0.004732656176
0.004717915602
0.004703353984
0.004688968536
0.004674756533
0.004660715301
0.004646842223
0.004633134733
0.004619590318
0.004606206513
0.004592980903
0.00457991112
0.004566994841
0.004554229791
0.004541613737
0.004529144488
0.004516819897
0.004504637856
0.004492596298
0.004480693194
0.004468926554
0.004457294423
0.004445794884
0.004434426055
0.004423186087
0.004412073167
0.004401085513
0.004390221374
0.004379479033
0.004368856803
0.004358353026
0.004347966073
0.004337694344
0.004327536268
0.004317490299
0.00430755492
0.004297728639
0.004288009989
0.004278397529
0.004268889842
0.004259485535
0.004250183238
0.004240981604
0.004231879309
0.004222875049
0.004213967544
0.004205155533
0.004196437776
0.004187813054
0.004179280168
0.004170837935
0.004162485194
0.004154220802
0.004146043634
0.004137952581
0.004129946555
0.004122024481
0.004114185304
0.004106427982
0.004098751493
0.004091154827
0.004083636992
0.004076197009
0.004068833916
0.004061546764
0.004054334618
0.004047196559
0.004040131678
0.004033139084
0.004026217895
0.004019367244
0.004012586277
0.004005874152
0.003999230038
0.003992653117
0.003986142583
0.003979697642
0.003973317509
0.003967001413
0.003960748591
0.003954558294
0.00394842978
0.00394236232
0.003936355194
0.003930407693
0.003924519115
0.003918688771
0.00391291598
0.003907200069
0.003901540376
0.003895936247
0.003890387038
0.003884892111
0.003879450839
0.003874062603
0.003868726791
0.003863442801
0.003858210035
0.003853027908
0.003847895839
0.003842813256
0.003837779594
0.003832794296
0.00382785681
0.003822966593
0.003818123109
0.003813325829
0.003808574228
0.003803867791
0.003799206008
0.003794588375
0.003790014395
0.003785483577
0.003780995436
0.003776549493
0.003772145275
0.003767782315
0.00376346015
0.003759178326
0.003754936391
0.003750733902
0.003746570417
0.003742445503
0.003738358732
0.003734309678
0.003730297923
0.003726323053
0.003722384659
0.003718482337
0.003714615687
0.003710784315
0.00370698783
0.003703225847
0.003699497985
0.003695803867
0.003692143121
0.003688515379
0.003684920277
0.003681357455
0.003677826557
0.003674327233
0.003670859135
0.003667421919
0.003664015246
0.00366063878
0.003657292188
0.003653975143
0.003650687319
0.003647428396
0.003644198056
0.003640995986
0.003637821875
0.003634675415
0.003631556303
0.00362846424
0.003625398927
0.003622360071
0.003619347381
0.00361636057
0.003613399354
0.003610463452
0.003607552585
0.003604666477
0.003601804858
0.003598967457
0.003596154009
0.003593364249
0.003590597917
0.003587854754
0.003585134507
0.003582436921
0.003579761747
0.003577108738
0.00357447765
0.00357186824
0.003569280268
0.003566713498
0.003564167695
0.003561642627
0.003559138064
0.003556653779
0.003554189547
0.003551745145
0.003549320353
0.003546914953
0.003544528729
0.003542161467
0.003539812957
0.003537482988
0.003535171354
0.003532877849
0.003530602271
0.003528344419
0.003526104093
0.003523881097
0.003521675237
0.003519486319
0.003517314152
0.003515158547
0.003513019317
0.003510896277
0.003508789244
0.003506698035
0.003504622471
0.003502562374
0.003500517567
0.003498487877
0.00349647313
0.003494473155
0.003492487782
0.003490516845
0.003488560176
0.003486617612
0.00348468899
0.003482774147
0.003480872925
0.003478985165
0.00347711071
0.003475249405
0.003473401098
0.003471565634
0.003469742864
0.003467932639
0.00346613481
0.00346434923
0.003462575756
0.003460814242
0.003459064547
0.00345732653
0.003455600051
0.003453884971
0.003452181153
0.003450488461
0.003448806761
0.00344713592
0.003445475804
0.003443826284
0.003442187229
0.003440558511
0.003438940002
0.003437331576
0.003435733108
0.003434144474
0.00343256555
0.003430996215
0.003429436348
0.00342788583
0.00342634454
0.003424812363
0.00342328918
0.003421774876
0.003420269337
0.003418772448
0.003417284097
0.003415804172
0.003414332561
0.003412869154
0.003411413843
0.003409966518
0.003408527072
0.003407095398
0.00340567139
0.003404254944
0.003402845954
0.003401444317
0.00340004993
0.003398662691
0.003397282498
0.003395909251
0.00339454285
0.003393183194
0.003391830186
0.003390483726
0.003389143718
0.003387810065
0.003386482669
0.003385161435
0.003383846267
0.003382537071
0.003381233753
0.003379936217
0.003378644371
0.003377358121
0.003376077375
0.00337480204
0.003373532025
0.003372267237
0.003371007584
0.003369752977
0.003368503324
0.003367258534
0.003366018516
0.003364783181
0.003363552438
0.003362326196
0.003361104367
0.003359886858
0.003358673582
0.003357464447
0.003356259363
0.00335505824
0.003353860988
0.003352667515
0.003351477731
0.003350291546
0.003349108866
0.003347929602
0.003346753659
0.003345580947
0.003344411371
0.003343244837
0.003342081252
0.00334092052
0.003339762546
0.003338607233
0.003337454483
0.003336304198
0.003335156279
0.003334010626
0.003332867136
0.003331725707
0.003330586234
0.003329448613
0.003328312737
0.003327178496
0.003326045782
0.003324914481
0.003323784481
0.003322655666
0.003321527918
0.003320401118
0.003319275143
0.00331814987
0.003317025171
0.003315900915
0.003314776968
0.003313653193
0.003312529445
0.003311405575
0.003310281425
0.003309156825
0.003308031597
0.003306905541
0.00330577844
0.003304650051
0.0033035201
0.003302388281
0.003301254245
0.003300117613
0.003290842647
0.003276513419
0.003262477851
0.003248695064
0.003235103522
0.003221641972
0.003208250226
0.003194869012
0.003181439741
0.003167904248
0.003154204591
0.003140282921
0.003126081439
0.003111542437
0.003096608434
0.00308122239
0.003065327992
0.003048870033
0.00303179484
0.003014050771
0.002995588763
0.002976362914
0.002956331097
0.002935455598
0.002913703741
0.002891048525
0.002867469219
0.002842951935
0.002817490132
0.002791085078
0.002763746201
0.002735491385
0.002706347132
0.002676348635
0.002645539722
0.002613972682
0.002581707956
0.00254881372
0.002515365337
0.002481444694
0.002447139438
0.00241254212
0.002377749262
0.002342860354
0.002307976822
0.00227320096
0.002238634861
0.002204379364
0.002170533037
0.002137191208
0.002104445062
0.002072380833
0.002041079066
0.002010614005
0.001981053076
0.001952456481
0.001924876913
0.001898359367
0.00187294107
0.001848651504
0.001825512513
0.001803538508
0.001782736731
0.001763107583
0.001744645008
0.001727336918
0.001711165641
0.001696108404
0.001682137818
0.001669222376
0.001657326953
0.001646413295
0.001636440498
0.001627365479
0.001619143421
0.001611728203
0.001605072811
0.001599129716
0.001593851241
0.001589189895
0.00158509868
0.001581531387
0.001578442852
0.001575789196
0.001573528043
0.00157161871
0.001570022376
0.001568702232
0.001567623603
0.001566754049
0.001566063447
0.001565524052
0.001565110524
0.001564799948
0.00156457182
0.001564408015
0.001564292729
0.001564212407
0.001564155639
0.001564113043
0.00156407713
0.001564042148
0.001564003919
0.00156395966
0.001563907801
0.001563847795
0.001563779935
0.001563705169
0.001563624922
0.001563540938
0.001563455125
0.001563369424
0.001563285699
0.001563205637
0.001563130681
0.001563061978
0.001563000346
0.001562946268
0.001562899893
0.001562861063
0.001562829343
0.001562804064
0.001562784378
0.001562769308
0.001562757801
0.001562748785
0.001562741217
0.00156273412
0.001562726627
0.001562718
0.001562707654
0.001562695164
0.001562680266
0.001562662854
0.001562642963
0.001562620755
0.001562596496
0.001562570531
0.001562543263
0.001562515122
0.001562486547
0.001562457965
0.001562429771
0.001562402315
0.001562375891
0.001562350734
0.001562327014
0.001562304838
0.001562284255
0.00156226526
0.001562247804
0.0015622318
0.001562217135
0.001562203678
0.001562191288
0.001562179824
0.001562169148
0.001562159132
0.001562149662
0.00156214064
0.001562131984
0.001562123628
0.001562115525
0.001562107638
0.001562099945
0.001562092434
0.001562085101
0.001562077949
0.001562070983
0.001562064215
0.001562057658
0.001562051325
0.001562045233
0.001562039398
0.001562033839
0.001562028576
0.001562023629
0.001562019021
0.001562014775
0.001562010913
0.001562007461
0.001562004442
0.001562001877
0.001561999787
0.001561998188
0.001561997092
0.001561996508
0.001561996438
0.001561996877
0.001561997814
0.001561999233
0.001562001109
0.001562003411
0.001562006102
0.001562009139
0.001562012475
0.001562016059
0.001562019835
0.001562023746
0.001562027735
0.001562031742
0.001562035709
0.001562039581
0.001562043303
0.001562046824
0.001562050098
0.001562053082
0.001562055738
0.001562058035
0.001562059945
0.001562061448
0.001562062528
0.001562063176
0.001562063389
0.001562063167
0.001562062518
0.001562061453
0.001562059987
0.00156205814
0.001562055934
0.001562053395
0.00156205055
0.00156204743
0.001562044063
0.001562040484
0.001562036722
0.00156203281
0.00156202878
0.001562024663
0.001562020489
0.001562016287
0.001562012085
0.001562007909
0.001562003784
0.001561999733
0.001561995778
0.001561991937
0.001561988228
0.001561984667
0.001561981267
0.00156197804
0.001561974994
0.001561972137
0.001561969475
0.001561967011
0.001561964747
0.001561962687
0.001561960842
0.001561959262
0.001561958132
)
;

boundaryField
{
    inlet
    {
        type            fixedValue;
        value           uniform 0;
    }
    outlet
    {
        type            zeroGradient;
    }
    wall
    {
        type            empty;
    }
}


// ************************************************************************* //
