/*--------------------------------*- C++ -*----------------------------------*\
  =========                 |
  \\      /  F ield         | OpenFOAM: The Open Source CFD Toolbox
   \\    /   O peration     | Website:  https://openfoam.org
    \\  /    A nd           | Version:  7
     \\/     M anipulation  |
\*---------------------------------------------------------------------------*/
FoamFile
{
    version     2.0;
    format      ascii;
    class       volScalarField;
    location    "0.000558243009";
    object      O2_0;
}
// * * * * * * * * * * * * * * * * * * * * * * * * * * * * * * * * * * * * * //

dimensions      [0 0 0 0 0 0 0];

internalField   nonuniform List<scalar> 
1500
(
0.01143661869
0.04484070365
0.09274158529
0.1398887288
0.1756082946
0.1978143359
0.2095736823
0.2150039589
0.2172272293
0.2180449077
0.2183180202
0.2184016385
0.2184252919
0.2184315157
0.2184330478
0.2184334025
0.21843348
0.2184334961
0.2184334993
0.2184334999
0.2184335
0.2184335
0.2184335
0.2184335
0.2184335
0.2184335
0.2184335
0.2184335
0.2184335
0.2184335
0.2184335
0.2184335
0.2184335
0.2184335
0.2184335
0.2184335
0.2184335
0.2184335
0.2184335
0.2184335
0.2184335
0.2184335
0.2184335
0.2184335
0.2184335
0.2184335
0.2184335
0.2184335
0.2184335
0.2184335
0.2184335
0.2184335
0.2184335
0.2184335
0.2184335
0.2184335
0.2184335
0.2184335
0.2184335
0.2184335
0.2184335
0.2184335
0.2184335
0.2184335
0.2184335
0.2184335
0.2184335
0.2184335
0.2184335
0.2184335
0.2184335
0.2184335
0.2184335
0.2184335
0.2184335
0.2184335
0.2184335
0.2184335
0.2184335
0.2184335
0.2184335
0.2184335
0.2184335
0.2184335
0.2184335
0.2184335
0.2184335
0.2184335
0.2184335
0.2184335
0.2184335
0.2184335
0.2184335
0.2184335
0.2184335
0.2184335
0.2184335
0.2184335
0.2184335
0.2184335
0.2184335
0.2184335
0.2184335
0.2184335
0.2184335
0.2184335
0.2184335
0.2184335
0.2184335
0.2184335
0.2184335
0.2184335
0.2184335
0.2184335
0.2184335
0.2184335
0.2184335
0.2184335
0.2184335
0.2184335
0.2184335
0.2184335
0.2184335
0.2184335
0.2184335
0.2184335
0.2184335
0.2184335
0.2184335
0.2184335
0.2184335
0.2184335
0.2184335
0.2184335
0.2184335
0.2184335
0.2184335
0.2184335
0.2184335
0.2184335
0.2184335
0.2184335
0.2184335
0.2184335
0.2184335
0.2184335
0.2184335
0.2184335
0.2184335
0.2184335
0.2184335
0.2184335
0.2184335
0.2184335
0.2184335
0.2184335
0.2184335
0.2184335
0.2184335
0.2184335
0.2184335
0.2184335
0.2184335
0.2184335
0.2184335
0.2184335
0.2184335
0.2184335
0.2184335
0.2184335
0.2184335
0.2184335
0.2184335
0.2184335
0.2184335
0.2184335
0.2184335
0.2184335
0.2184335
0.2184335
0.2184335
0.2184335
0.2184335
0.2184335
0.2184335
0.2184335
0.2184335
0.2184335
0.2184335
0.2184335
0.2184335
0.2184335
0.2184335
0.2184335
0.2184335
0.2184335
0.2184335
0.2184335
0.2184335
0.2184335
0.2184335
0.2184335
0.2184335
0.2184335
0.2184335
0.2184335
0.2184335
0.2184335
0.2184335
0.2184335
0.2184335
0.2184335
0.2184335
0.2184335
0.2184335
0.2184335
0.2184335
0.2184335
0.2184335
0.2184335
0.2184335
0.2184335
0.2184335
0.2184335
0.2184335
0.2184335
0.2184335
0.2184335
0.2184335
0.2184335
0.2184335
0.2184335
0.2184335
0.2184335
0.2184335
0.2184335
0.2184335
0.2184335
0.2184335
0.2184334999
0.2184334999
0.2184334999
0.2184334998
0.2184334997
0.2184334996
0.2184334995
0.2184334993
0.218433499
0.2184334989
0.2184334989
0.2184334978
0.2184334977
0.2184334977
0.2184334976
0.2184334976
0.2184334975
0.2184334974
0.2184334974
0.2184334973
0.2184334972
0.2184334972
0.2184334971
0.218433497
0.218433497
0.2184334969
0.2184334968
0.2184334967
0.2184334966
0.2184334966
0.2184334965
0.2184334964
0.2184334963
0.2184334962
0.2184334961
0.218433496
0.2184334959
0.2184334958
0.2184334957
0.2184334956
0.2184334955
0.2184334954
0.2184334953
0.2184334952
0.2184334951
0.218433495
0.2184334948
0.2184334947
0.2184334946
0.2184334945
0.2184334943
0.2184334942
0.2184334941
0.2184334939
0.2184334938
0.2184334937
0.2184334935
0.2184334934
0.2184334932
0.218433493
0.2184334929
0.2184334927
0.2184334926
0.2184334924
0.2184334922
0.218433492
0.2184334919
0.2184334917
0.2184334915
0.2184334913
0.2184334911
0.2184334909
0.2184334907
0.2184334905
0.2184334903
0.21843349
0.2184334898
0.2184334896
0.2184334894
0.2184334891
0.2184334889
0.2184334886
0.2184334884
0.2184334881
0.2184334879
0.2184334876
0.2184334873
0.2184334871
0.2184334868
0.2184334865
0.2184334862
0.2184334859
0.2184334856
0.2184334853
0.218433485
0.2184334846
0.2184334843
0.218433484
0.2184334836
0.2184334833
0.2184334829
0.2184334825
0.2184334822
0.2184334818
0.2184334814
0.218433481
0.2184334806
0.2184334802
0.2184334798
0.2184334794
0.2184334789
0.2184334785
0.218433478
0.2184334776
0.2184334771
0.2184334766
0.2184334761
0.2184334756
0.2184334751
0.2184334746
0.2184334741
0.2184334736
0.218433473
0.2184334725
0.2184334719
0.2184334713
0.2184334707
0.2184334701
0.2184334695
0.2184334689
0.2184334683
0.2184334676
0.218433467
0.2184334663
0.2184334656
0.2184334649
0.2184334642
0.2184334635
0.2184334628
0.218433462
0.2184334613
0.2184334605
0.2184334597
0.2184334589
0.2184334581
0.2184334573
0.2184334564
0.2184334556
0.2184334547
0.2184334538
0.2184334529
0.2184334519
0.218433451
0.21843345
0.2184334491
0.2184334481
0.2184334471
0.218433446
0.218433445
0.2184334439
0.2184334428
0.2184334417
0.2184334406
0.2184334394
0.2184334383
0.2184334371
0.2184334359
0.2184334346
0.2184334334
0.2184334321
0.2184334308
0.2184334295
0.2184334282
0.2184334268
0.2184334254
0.218433424
0.2184334225
0.2184334211
0.2184334196
0.2184334181
0.2184334165
0.2184334149
0.2184334133
0.2184334117
0.2184334101
0.2184334084
0.2184334066
0.2184334049
0.2184334031
0.2184334013
0.2184333995
0.2184333976
0.2184333957
0.2184333937
0.2184333917
0.2184333897
0.2184333877
0.2184333856
0.2184333835
0.2184333813
0.2184333791
0.2184333768
0.2184333746
0.2184333722
0.2184333699
0.2184333674
0.218433365
0.2184333625
0.2184333599
0.2184333573
0.2184333547
0.218433352
0.2184333492
0.2184333465
0.2184333436
0.2184333407
0.2184333377
0.2184333347
0.2184333317
0.2184333285
0.2184333253
0.2184333221
0.2184333188
0.2184333154
0.218433312
0.2184333085
0.2184333049
0.2184333012
0.2184332975
0.2184332937
0.2184332899
0.2184332859
0.2184332819
0.2184332778
0.2184332736
0.2184332693
0.218433265
0.2184332605
0.218433256
0.2184332514
0.2184332466
0.2184332418
0.2184332369
0.2184332319
0.2184332267
0.2184332215
0.2184332161
0.2184332107
0.2184332051
0.2184331994
0.2184331936
0.2184331876
0.2184331815
0.2184331753
0.2184331689
0.2184331624
0.2184331558
0.218433149
0.2184331421
0.218433135
0.2184331277
0.2184331203
0.2184331127
0.2184331049
0.2184330969
0.2184330888
0.2184330805
0.2184330719
0.2184330632
0.2184330543
0.2184330451
0.2184330358
0.2184330262
0.2184330163
0.2184330063
0.218432996
0.2184329854
0.2184329746
0.2184329635
0.2184329521
0.2184329405
0.2184329285
0.2184329163
0.2184329038
0.2184328909
0.2184328777
0.2184328641
0.2184328503
0.218432836
0.2184328214
0.2184328064
0.218432791
0.2184327752
0.218432759
0.2184327423
0.2184327252
0.2184327077
0.2184326897
0.2184326711
0.2184326521
0.2184326326
0.2184326125
0.2184325919
0.2184325707
0.2184325489
0.2184325265
0.2184325035
0.2184324798
0.2184324555
0.2184324304
0.2184324047
0.2184323782
0.2184323509
0.2184323228
0.2184322939
0.2184322641
0.2184322335
0.2184322019
0.2184321694
0.2184321359
0.2184321014
0.2184320657
0.218432029
0.2184319911
0.218431952
0.2184319116
0.21843187
0.2184318269
0.2184317824
0.2184317364
0.2184316888
0.2184316395
0.2184315885
0.2184315357
0.2184314809
0.2184314241
0.2184313651
0.2184313038
0.2184312401
0.2184311738
0.2184311048
0.2184310329
0.2184309578
0.2184308794
0.2184307973
0.2184307115
0.2184306215
0.218430527
0.2184304277
0.2184303231
0.2184302129
0.2184300965
0.2184299734
0.218429843
0.2184297046
0.2184295575
0.2184294008
0.2184292336
0.2184290548
0.2184288633
0.2184286578
0.2184284367
0.2184281986
0.2184279415
0.2184276634
0.2184273619
0.2184270347
0.2184266786
0.2184262906
0.2184258669
0.2184254035
0.2184248959
0.2184243388
0.2184237266
0.2184230527
0.2184223099
0.2184214899
0.2184205837
0.2184195809
0.2184184698
0.2184172375
0.2184158693
0.2184143487
0.2184126571
0.2184107738
0.2184086753
0.2184063352
0.218403724
0.2184008083
0.2183975507
0.218393909
0.2183898358
0.218385278
0.2183801755
0.2183744611
0.2183680591
0.2183608842
0.2183528409
0.2183438216
0.2183337054
0.2183223566
0.2183096227
0.2182953323
0.2182792931
0.2182612894
0.2182410787
0.2182183896
0.2181929174
0.2181643208
0.2181322177
0.2180961803
0.2180557302
0.2180103329
0.2179593916
0.2179022408
0.2178381388
0.2177662607
0.2176856901
0.2175954102
0.2174942952
0.2173811013
0.2172544566
0.2171128522
0.2169546327
0.2167779874
0.216580942
0.2163613518
0.2161168958
0.215845073
0.2155432009
0.2152084167
0.2148376822
0.2144277914
0.2139753829
0.213476956
0.2129288912
0.2123274744
0.2116689257
0.2109494306
0.2101651743
0.2093123779
0.2083873348
0.207386447
0.2063062606
0.2051434976
0.2038950861
0.202558185
0.2011302051
0.1996088253
0.1979920037
0.1962779841
0.194465299
0.1925527674
0.1905394909
0.1884248466
0.1862084768
0.183890271
0.1814703458
0.1789496499
0.1763268272
0.1736061412
0.1707777878
0.1678438479
0.1648054843
0.1617052027
0.1585201628
0.1552540883
0.1519116793
0.1484966605
0.1450108584
0.1414525595
0.1378188057
0.134107753
0.1303188528
0.1264472721
0.1224664159
0.1184358356
0.1143271694
0.1101399493
0.1058546547
0.1015273958
0.09714273358
0.09271208025
0.08825361105
0.08378868207
0.07934222695
0.07494092818
0.07061394422
0.0663918039
0.06230515319
0.05837586382
0.05464683755
0.05112105003
0.04783507486
0.04478618761
0.04197562022
0.03939851746
0.0370451596
0.03489348644
0.0329248944
0.03113659697
0.0295129477
0.02803828666
0.02669783922
0.02547786524
0.02436556629
0.0233492283
0.02241863748
0.02157166382
0.02079137836
0.02006714925
0.01939770707
0.01877713498
0.01820029188
0.01766273056
0.01716059632
0.01669065856
0.01624971821
0.01583529814
0.01544508569
0.01507702219
0.01472926944
0.01440018179
0.0140882826
0.01379224397
0.01351086915
0.01324307739
0.01298789055
0.01274442161
0.01251186451
0.01228948527
0.01207661426
0.01187263938
0.01167700006
0.01148918201
0.01130871257
0.01113515658
0.01096811281
0.01080721068
0.01065210743
0.01050248556
0.01035805056
0.01021852886
0.01008366601
0.009953225078
0.009826985118
0.009704739889
0.009586296636
0.009471475015
0.009360106107
0.009252031531
0.009147102635
0.009045179762
0.008946131574
0.008849834449
0.008756171916
0.008665034146
0.008576317486
0.008489924024
0.008405761203
0.008323741451
0.008243781856
0.008165803848
0.008089732927
0.008015498394
0.007943033114
0.007872273289
0.007803158252
0.00773563028
0.007669634408
0.007605118269
0.007542031943
0.007480327807
0.007419960408
0.007360886337
0.007303064116
0.007246454087
0.007191018313
0.007136720485
0.007083525833
0.007031401046
0.00698031419
0.006930234642
0.00688113302
0.006832981117
0.006785751845
0.006739419178
0.006693958099
0.006649344548
0.006605555383
0.006562568326
0.006520361929
0.006478915533
0.006438209231
0.00639822383
0.006358940827
0.006320342366
0.006282411219
0.006245130753
0.006208484904
0.006172458155
0.006137035509
0.006102202468
0.006067945012
0.00603424958
0.006001103048
0.005968492713
0.005936406277
0.005904831826
0.005873757819
0.005843173072
0.005813066743
0.00578342832
0.005754247604
0.005725514703
0.005697220017
0.005669354227
0.005641908285
0.005614873402
0.005588241043
0.005562002912
0.005536150947
0.005510677312
0.005485574386
0.005460834757
0.005436451215
0.005412416744
0.005388724516
0.005365367884
0.005342340376
0.005319635691
0.005297247688
0.005275170387
0.00525339796
0.005231924725
0.005210745145
0.005189853822
0.005169245488
0.005148915009
0.005128857374
0.005109067695
0.005089541199
0.00507027323
0.005051259241
0.005032494794
0.005013975552
0.004995697282
0.004977655847
0.004959847204
0.004942267405
0.004924912588
0.004907778981
0.004890862893
0.004874160719
0.004857668929
0.004841384074
0.004825302778
0.004809421738
0.004793737723
0.004778247571
0.004762948185
0.004747836537
0.00473290966
0.004718164648
0.004703598658
0.004689208902
0.004674992653
0.004660947237
0.004647070034
0.004633358478
0.004619810052
0.004606422292
0.004593192781
0.004580119149
0.004567199074
0.004554430277
0.004541810525
0.004529337627
0.004517009432
0.004504823834
0.004492778764
0.004480872191
0.004469102125
0.00445746661
0.004445963728
0.004434591596
0.004423348365
0.004412232219
0.004401241376
0.004390374087
0.004379628631
0.004369003321
0.004358496499
0.004348106535
0.004337831828
0.004327670807
0.004317621925
0.004307683664
0.004297854533
0.004288133063
0.004278517812
0.004269007364
0.004259600325
0.004250295323
0.004241091013
0.004231986068
0.004222979186
0.004214069086
0.004205254505
0.004196534204
0.004187906964
0.004179371583
0.00417092688
0.004162571694
0.004154304881
0.004146125315
0.004138031887
0.004130023509
0.004122099105
0.00411425762
0.004106498013
0.004098819259
0.004091220351
0.004083700294
0.00407625811
0.004068892837
0.004061603525
0.004054389239
0.004047249059
0.004040182078
0.004033187403
0.004026264152
0.004019411458
0.004012628466
0.004005914335
0.003999268233
0.003992689343
0.003986176858
0.003979729982
0.003973347933
0.003967029938
0.003960775235
0.003954583073
0.003948452712
0.003942383421
0.003936374481
0.003930425181
0.003924534822
0.003918702712
0.003912928171
0.003907210526
0.003901549115
0.003895943284
0.003890392387
0.003884895788
0.00387945286
0.003874062982
0.003868725543
0.003863439939
0.003858205576
0.003853021866
0.003847888228
0.00384280409
0.003837768887
0.003832782062
0.003827843063
0.003822951347
0.003818106378
0.003813307626
0.003808554566
0.003803846684
0.003799183469
0.003794564417
0.003789989032
0.003785456821
0.003780967299
0.003776519989
0.003772114416
0.003767750113
0.003763426618
0.003759143476
0.003754900236
0.003750696452
0.003746531686
0.003742405502
0.003738317472
0.003734267172
0.003730254182
0.003726278089
0.003722338483
0.00371843496
0.003714567121
0.00371073457
0.003706936918
0.003703173779
0.003699444771
0.003695749519
0.003692087648
0.003688458793
0.003684862587
0.003681298672
0.003677766693
0.003674266296
0.003670797136
0.003667358868
0.003663951153
0.003660573654
0.00365722604
0.003653907982
0.003650619155
0.003647359238
0.003644127915
0.003640924869
0.003637749792
0.003634602376
0.003631482317
0.003628389315
0.003625323072
0.003622283296
0.003619269694
0.00361628198
0.003613319869
0.003610383081
0.003607471336
0.003604584359
0.003601721879
0.003598883625
0.003596069331
0.003593278734
0.003590511573
0.003587767589
0.003585046528
0.003582348136
0.003579672164
0.003577018364
0.003574386492
0.003571776306
0.003569187565
0.003566620033
0.003564073475
0.003561547659
0.003559042355
0.003556557336
0.003554092377
0.003551647254
0.003549221748
0.00354681564
0.003544428715
0.003542060758
0.003539711559
0.003537380907
0.003535068597
0.003532774421
0.003530498178
0.003528239667
0.003525998688
0.003523775045
0.003521568542
0.003519378988
0.003517206189
0.003515049959
0.003512910108
0.003510786453
0.003508678809
0.003506586994
0.00350451083
0.003502450137
0.003500404739
0.003498374462
0.003496359133
0.003494358581
0.003492372636
0.003490401129
0.003488443897
0.003486500772
0.003484571593
0.003482656198
0.003480754428
0.003478866123
0.003476991127
0.003475129286
0.003473280444
0.003471444451
0.003469621154
0.003467810405
0.003466012056
0.00346422596
0.003462451972
0.003460689947
0.003458939745
0.003457201222
0.003455474241
0.003453758661
0.003452054346
0.00345036116
0.003448678968
0.003447007637
0.003445347034
0.003443697029
0.003442057491
0.003440428292
0.003438809304
0.003437200401
0.003435601458
0.00343401235
0.003432432955
0.003430863149
0.003429302814
0.003427751828
0.003426210073
0.00342467743
0.003423153784
0.003421639018
0.003420133017
0.003418635668
0.003417146857
0.003415666473
0.003414194404
0.00341273054
0.003411274772
0.00340982699
0.003408387088
0.003406954959
0.003405530496
0.003404113594
0.003402704149
0.003401302057
0.003399907215
0.00339851952
0.003397138872
0.003395765169
0.003394398311
0.003393038199
0.003391684733
0.003390337815
0.003388997348
0.003387663235
0.003386335379
0.003385013683
0.003383698053
0.003382388393
0.003381084609
0.003379786607
0.003378494293
0.003377207574
0.003375926357
0.00337465055
0.00337338006
0.003372114795
0.003370854665
0.003369599577
0.003368349441
0.003367104166
0.003365863662
0.003364627837
0.003363396601
0.003362169864
0.003360947537
0.003359729528
0.003358515747
0.003357306105
0.003356100511
0.003354898875
0.003353701105
0.003352507112
0.003351316804
0.00335013009
0.003348946878
0.003347767077
0.003346590594
0.003345417336
0.00334424721
0.003343080122
0.003341915978
0.003340754681
0.003339596138
0.003338440249
0.003337286919
0.003336136048
0.003334987537
0.003333841285
0.00333269719
0.003331555149
0.003330415059
0.003329276812
0.003328140302
0.003327005419
0.003325872054
0.003324740094
0.003323609425
0.003322479931
0.003321351494
0.003320223994
0.003319097309
0.003317971316
0.003316845889
0.0033157209
0.00331459622
0.003313471717
0.003312347259
0.00331122271
0.003310097934
0.003308972789
0.003307847133
0.003306720812
0.003305593664
0.003304465509
0.003303336142
0.003302205313
0.003301072716
0.003299937956
0.00329068087
0.003276322957
0.003262277066
0.00324848592
0.003234886172
0.003221416374
0.003208016214
0.003194626326
0.003181188046
0.003167643153
0.003153933662
0.003140001695
0.003125789433
0.003111239161
0.003096293398
0.00308089511
0.003064987998
0.003048516871
0.00303142808
0.003013670006
0.002995193614
0.002975953033
0.002955906171
0.002935015349
0.002913247933
0.002890576968
0.002866981776
0.002842448527
0.002816970749
0.002790549786
0.002763195157
0.002734924841
0.002705765451
0.0026757523
0.002644929346
0.002613349014
0.002581071891
0.002548166298
0.002514707746
0.002480778268
0.00244646565
0.002411862572
0.002377065672
0.00234217454
0.002307290683
0.002272516454
0.002237953982
0.002203704115
0.002169865408
0.002136533149
0.00210379846
0.002071747487
0.002040460669
0.002010012125
0.00198046914
0.001951891763
0.001924332525
0.001897836253
0.001872440006
0.001848173092
0.001825057189
0.001803106546
0.001782328249
0.001762722552
0.001744283264
0.001726998168
0.001710849481
0.001695814327
0.001681865224
0.00166897059
0.00165709523
0.001646200833
0.001636246452
0.001627188965
0.001618983528
0.001611584003
0.001604943364
0.001599014079
0.001593748473
0.001589099064
0.001585018871
0.001581461702
0.001578382416
0.001575737163
0.001573483599
0.001571581076
0.001569990809
0.00156867603
0.001567602104
0.001566736635
0.001566049547
0.001565513137
0.001565102112
0.001564793604
0.001564567152
0.001564404676
0.001564290418
0.001564210862
0.001564154638
0.001564112402
0.0015640767
0.001564041811
0.001564003587
0.001563959271
0.001563907314
0.001563847189
0.001563779205
0.001563704322
0.001563623974
0.001563539912
0.001563454049
0.001563368327
0.001563284609
0.001563204581
0.001563129683
0.001563061057
0.001562999517
0.001562945541
0.001562899274
0.001562860552
0.001562828935
0.001562803753
0.001562784152
0.001562769154
0.001562757706
0.001562748734
0.001562741195
0.001562734114
0.001562726623
0.001562717988
0.001562707625
0.001562695111
0.001562680185
0.001562662741
0.001562642818
0.001562620579
0.001562596292
0.001562570303
0.001562543015
0.001562514859
0.001562486276
0.00156245769
0.001562429496
0.001562402045
0.00156237563
0.001562350484
0.001562326778
0.001562304618
0.001562284051
0.001562265073
0.001562247632
0.001562231643
0.001562216992
0.001562203547
0.001562191168
0.001562179714
0.001562169045
0.001562159035
0.00156214957
0.001562140552
0.001562131899
0.001562123546
0.001562115443
0.001562107558
0.001562099866
0.001562092356
0.001562085024
0.001562077872
0.001562070908
0.001562064141
0.001562057584
0.001562051253
0.001562045162
0.001562039329
0.001562033772
0.001562028511
0.001562023567
0.001562018961
0.001562014717
0.001562010858
0.001562007409
0.001562004393
0.001562001832
0.001561999745
0.001561998149
0.001561997057
0.001561996477
0.00156199641
0.001561996852
0.001561997793
0.001561999215
0.001562001094
0.001562003399
0.001562006092
0.001562009132
0.00156201247
0.001562016055
0.001562019832
0.001562023743
0.001562027732
0.001562031738
0.001562035705
0.001562039575
0.001562043296
0.001562046815
0.001562050087
0.001562053068
0.001562055722
0.001562058016
0.001562059923
0.001562061423
0.0015620625
0.001562063146
0.001562063356
0.001562063132
0.001562062481
0.001562061413
0.001562059946
0.001562058097
0.00156205589
0.001562053351
0.001562050506
0.001562047385
0.001562044019
0.00156204044
0.001562036679
0.001562032769
0.001562028741
0.001562024626
0.001562020454
0.001562016255
0.001562012056
0.001562007883
0.001562003761
0.001561999714
0.001561995762
0.001561991926
0.001561988221
0.001561984664
0.001561981268
0.001561978044
0.001561975003
0.00156197215
0.001561969491
0.001561967031
0.001561964771
0.001561962714
0.001561960872
0.001561959295
0.001561958168
)
;

boundaryField
{
    inlet
    {
        type            fixedValue;
        value           uniform 0;
    }
    outlet
    {
        type            zeroGradient;
    }
    wall
    {
        type            empty;
    }
}


// ************************************************************************* //
