/*--------------------------------*- C++ -*----------------------------------*\
  =========                 |
  \\      /  F ield         | OpenFOAM: The Open Source CFD Toolbox
   \\    /   O peration     | Website:  https://openfoam.org
    \\  /    A nd           | Version:  7
     \\/     M anipulation  |
\*---------------------------------------------------------------------------*/
FoamFile
{
    version     2.0;
    format      ascii;
    class       volScalarField;
    location    "0.000558243009";
    object      O_0;
}
// * * * * * * * * * * * * * * * * * * * * * * * * * * * * * * * * * * * * * //

dimensions      [0 0 0 0 0 0 0];

internalField   nonuniform List<scalar> 
1500
(
2.53282759e-27
2.647478968e-27
2.369206992e-27
2.115234015e-27
1.941226568e-27
1.840930647e-27
1.790429526e-27
1.767842847e-27
1.758756343e-27
1.755387102e-27
1.754150869e-27
1.753612962e-27
1.753275882e-27
1.75299694e-27
1.752749456e-27
1.752535403e-27
1.75235805e-27
1.752216141e-27
1.752104954e-27
1.752018713e-27
1.751952401e-27
1.751902508e-27
1.7518669e-27
1.751844217e-27
1.751833204e-27
1.751832241e-27
1.751839176e-27
1.751851431e-27
1.751866269e-27
1.751881115e-27
1.751893816e-27
1.75190279e-27
1.751907068e-27
1.751906233e-27
1.751900314e-27
1.751889665e-27
1.751874859e-27
1.7518566e-27
1.751835663e-27
1.75181286e-27
1.751789009e-27
1.751764908e-27
1.751741305e-27
1.751718862e-27
1.751698121e-27
1.751679482e-27
1.751663185e-27
1.751649313e-27
1.751637804e-27
1.751628483e-27
1.75162109e-27
1.75161532e-27
1.751610861e-27
1.751607414e-27
1.751604726e-27
1.751602598e-27
1.751600895e-27
1.751599546e-27
1.751598539e-27
1.751597915e-27
1.751597759e-27
1.751598189e-27
1.751599343e-27
1.751601372e-27
1.751604426e-27
1.751608646e-27
1.751614152e-27
1.751621033e-27
1.751629338e-27
1.751639071e-27
1.751650185e-27
1.751662579e-27
1.751676096e-27
1.75169053e-27
1.751705627e-27
1.751721094e-27
1.751736606e-27
1.75175182e-27
1.751766383e-27
1.751779945e-27
1.751792168e-27
1.75180274e-27
1.751811379e-27
1.751817846e-27
1.751821947e-27
1.751823541e-27
1.751822544e-27
1.751818924e-27
1.751812709e-27
1.751803981e-27
1.751792874e-27
1.751779573e-27
1.751764307e-27
1.751747346e-27
1.751728992e-27
1.751709573e-27
1.751689435e-27
1.751668932e-27
1.751648419e-27
1.751628238e-27
1.751608715e-27
1.751590146e-27
1.751572789e-27
1.751556859e-27
1.751542522e-27
1.75152989e-27
1.751519019e-27
1.751509911e-27
1.751502518e-27
1.751496742e-27
1.751492448e-27
1.751489471e-27
1.751487621e-27
1.7514867e-27
1.751486508e-27
1.751486853e-27
1.751487561e-27
1.751488478e-27
1.751489482e-27
1.751490476e-27
1.751491399e-27
1.751492215e-27
1.751492917e-27
1.751493518e-27
1.751494047e-27
1.751494547e-27
1.751495064e-27
1.751495646e-27
1.75149634e-27
1.751497185e-27
1.751498215e-27
1.751499457e-27
1.751500931e-27
1.751502655e-27
1.751504643e-27
1.75150691e-27
1.751509475e-27
1.751512362e-27
1.751515603e-27
1.751519237e-27
1.75152331e-27
1.751527875e-27
1.751532987e-27
1.751538706e-27
1.751545085e-27
1.751552174e-27
1.751560013e-27
1.751568625e-27
1.751578022e-27
1.751588191e-27
1.751599102e-27
1.751610704e-27
1.751622923e-27
1.751635667e-27
1.751648829e-27
1.751662284e-27
1.751675898e-27
1.751689532e-27
1.75170304e-27
1.751716278e-27
1.751729105e-27
1.751741385e-27
1.75175299e-27
1.7517638e-27
1.751773701e-27
1.751782592e-27
1.751790377e-27
1.751796968e-27
1.751802282e-27
1.751806244e-27
1.751808783e-27
1.751809833e-27
1.751809339e-27
1.75180725e-27
1.75180353e-27
1.751798153e-27
1.751791114e-27
1.751782426e-27
1.751772127e-27
1.751760284e-27
1.751746994e-27
1.751732393e-27
1.751716652e-27
1.751699988e-27
1.751682656e-27
1.751664956e-27
1.751647225e-27
1.751629836e-27
1.751613183e-27
1.751597675e-27
1.751583716e-27
1.751571691e-27
1.751561947e-27
1.751554776e-27
1.751550399e-27
1.75154896e-27
1.751550519e-27
1.751555058e-27
1.751562496e-27
1.751572701e-27
1.751585518e-27
1.751600787e-27
1.751618361e-27
1.751638119e-27
1.751659957e-27
1.751683777e-27
1.751709449e-27
1.751736771e-27
1.751765414e-27
1.75179488e-27
1.751824466e-27
1.751853253e-27
1.751880136e-27
1.751903895e-27
1.751923311e-27
1.751937325e-27
1.751945235e-27
1.751946894e-27
1.751942905e-27
1.751934764e-27
1.751924929e-27
1.75191678e-27
1.751914453e-27
1.751922527e-27
1.751945585e-27
1.751987659e-27
1.752051614e-27
1.752138527e-27
1.752247149e-27
1.752373515e-27
1.75251081e-27
1.752649547e-27
1.752778114e-27
1.752883705e-27
1.752953611e-27
1.752976802e-27
1.752945672e-27
1.752857793e-27
1.75271747e-27
1.752536894e-27
1.752336662e-27
1.752145504e-27
1.751999097e-27
1.751937961e-27
1.752004686e-27
1.75224086e-27
1.75268416e-27
1.753363246e-27
1.754278428e-27
1.755321505e-27
1.755723375e-27
1.755807696e-27
1.755896359e-27
1.755988515e-27
1.756083561e-27
1.756181078e-27
1.756280786e-27
1.756382495e-27
1.756486088e-27
1.756591488e-27
1.756698655e-27
1.756807566e-27
1.756918217e-27
1.757030612e-27
1.757144764e-27
1.757260693e-27
1.757378421e-27
1.757497976e-27
1.75761939e-27
1.757742698e-27
1.757867935e-27
1.757995143e-27
1.758124363e-27
1.758255644e-27
1.758389032e-27
1.758524581e-27
1.758662345e-27
1.758802384e-27
1.758944761e-27
1.759089542e-27
1.759236799e-27
1.759386605e-27
1.759539043e-27
1.759694195e-27
1.759852154e-27
1.760013015e-27
1.760176881e-27
1.76034386e-27
1.760514068e-27
1.760687628e-27
1.76086467e-27
1.761045334e-27
1.761229768e-27
1.761418129e-27
1.761610584e-27
1.761807313e-27
1.762008505e-27
1.762214362e-27
1.762425099e-27
1.762640945e-27
1.762862145e-27
1.763088957e-27
1.76332166e-27
1.763560548e-27
1.763805935e-27
1.764058158e-27
1.764317573e-27
1.764584561e-27
1.764859529e-27
1.765142911e-27
1.765435168e-27
1.765736796e-27
1.766048319e-27
1.766370302e-27
1.766703343e-27
1.767048084e-27
1.76740521e-27
1.767775451e-27
1.768159587e-27
1.768558454e-27
1.768972941e-27
1.769404001e-27
1.76985265e-27
1.770319976e-27
1.77080714e-27
1.771315382e-27
1.77184603e-27
1.772400499e-27
1.772980305e-27
1.773587065e-27
1.774222509e-27
1.774888483e-27
1.775586963e-27
1.776320054e-27
1.777090011e-27
1.777899236e-27
1.778750299e-27
1.77964594e-27
1.780589085e-27
1.781582857e-27
1.782630588e-27
1.78373583e-27
1.784902374e-27
1.78613426e-27
1.787435792e-27
1.788811558e-27
1.790266443e-27
1.791805651e-27
1.793434716e-27
1.79515953e-27
1.796986357e-27
1.798921856e-27
1.800973104e-27
1.803147617e-27
1.805453376e-27
1.807898848e-27
1.810493015e-27
1.8132454e-27
1.816166092e-27
1.819265777e-27
1.822555765e-27
1.826048023e-27
1.829755201e-27
1.833690671e-27
1.83786855e-27
1.842303744e-27
1.847011971e-27
1.852009807e-27
1.85731471e-27
1.862945065e-27
1.868920215e-27
1.8752605e-27
1.881987294e-27
1.889123041e-27
1.896691295e-27
1.904716754e-27
1.9132253e-27
1.922244038e-27
1.931801328e-27
1.941926828e-27
1.952651526e-27
1.964007774e-27
1.976029328e-27
1.988751378e-27
2.002210582e-27
2.016445096e-27
2.031494603e-27
2.047400346e-27
2.064205147e-27
2.081953438e-27
2.10069128e-27
2.12046638e-27
2.141328115e-27
2.16332754e-27
2.186517403e-27
2.210952154e-27
2.236687945e-27
2.263782639e-27
2.292295799e-27
2.322288693e-27
2.353824273e-27
2.386967168e-27
2.421783664e-27
2.45834168e-27
2.496710741e-27
2.536961946e-27
2.57916793e-27
2.623402824e-27
2.669742208e-27
2.718263055e-27
2.76904368e-27
2.822163673e-27
2.877703833e-27
2.935746097e-27
2.99637346e-27
3.059669893e-27
3.125720258e-27
3.194610211e-27
3.266426107e-27
3.341254899e-27
3.419184028e-27
3.500301316e-27
3.584694849e-27
3.67245286e-27
3.763663605e-27
3.858415235e-27
3.956795674e-27
4.058892483e-27
4.164792725e-27
4.274582833e-27
4.388348471e-27
4.506174396e-27
4.628144318e-27
4.754340761e-27
4.884844925e-27
5.019736544e-27
5.159093752e-27
5.302992946e-27
5.45150865e-27
5.604713388e-27
5.762677552e-27
5.925469281e-27
6.093154339e-27
6.265796002e-27
6.443454948e-27
6.626189151e-27
6.814053787e-27
7.007101144e-27
7.205380536e-27
7.408938234e-27
7.617817397e-27
7.832058016e-27
8.05169687e-27
8.276767487e-27
8.50730012e-27
8.743321734e-27
8.984856002e-27
9.231923317e-27
9.484540813e-27
9.742722403e-27
1.000647883e-26
1.027581771e-26
1.055074367e-26
1.083125836e-26
1.111736063e-26
1.14090466e-26
1.170630985e-26
1.200914156e-26
1.231753066e-26
1.263146406e-26
1.295092681e-26
1.32759024e-26
1.360637295e-26
1.394231947e-26
1.428372218e-26
1.463056081e-26
1.49828149e-26
1.534046414e-26
1.570348878e-26
1.607186998e-26
1.644559022e-26
1.682463374e-26
1.7208987e-26
1.759863915e-26
1.799358251e-26
1.839381313e-26
1.879933132e-26
1.921014222e-26
1.962625642e-26
2.004769056e-26
2.0474468e-26
2.090661952e-26
2.134418399e-26
2.178720913e-26
2.22357523e-26
2.268988127e-26
2.314967506e-26
2.361522483e-26
2.408663476e-26
2.456402298e-26
2.504752259e-26
2.553728265e-26
2.603346925e-26
2.653626662e-26
2.704587831e-26
2.756252845e-26
2.808646304e-26
2.861795143e-26
2.9157288e-26
2.970479425e-26
3.026082147e-26
3.082575428e-26
3.140001298e-26
3.198404598e-26
3.257830582e-26
3.318328038e-26
3.379948979e-26
3.44274572e-26
3.506775837e-26
3.572101989e-26
3.63879156e-26
3.70691665e-26
3.776554296e-26
3.847786747e-26
3.92070172e-26
3.995392718e-26
4.071959651e-26
4.15051003e-26
4.231159226e-26
4.314022446e-26
4.399222837e-26
4.48689228e-26
4.577170393e-26
4.670200912e-26
4.766131884e-26
4.865118586e-26
4.967324685e-26
5.072922483e-26
5.182093025e-26
5.295026249e-26
5.411921216e-26
5.532986383e-26
5.65843991e-26
5.788509991e-26
5.923435198e-26
6.063464848e-26
6.20885939e-26
6.359890796e-26
6.51684299e-26
6.680012278e-26
6.849707813e-26
7.026252074e-26
7.209981376e-26
7.401246397e-26
7.600412743e-26
7.807861532e-26
8.023990022e-26
8.249212264e-26
8.483959796e-26
8.728682374e-26
8.983848753e-26
9.249947504e-26
9.527487889e-26
9.817000787e-26
1.011903968e-25
1.043418169e-25
1.076302871e-25
1.110620858e-25
1.146437638e-25
1.183821579e-25
1.222844052e-25
1.263579596e-25
1.306106085e-25
1.350504913e-25
1.396861204e-25
1.445264027e-25
1.495806653e-25
1.548586825e-25
1.603707076e-25
1.661275081e-25
1.721404067e-25
1.784213291e-25
1.849828598e-25
1.918383088e-25
1.990017919e-25
2.064883282e-25
2.1431396e-25
2.224959013e-25
2.310527235e-25
2.400045889e-25
2.49373547e-25
2.591839109e-25
2.694627399e-25
2.802404587e-25
2.915516546e-25
3.034361089e-25
3.159401307e-25
3.291182885e-25
3.430356585e-25
3.577707507e-25
3.734193187e-25
3.900993254e-25
4.079574222e-25
4.271774054e-25
4.479912637e-25
4.706936165e-25
4.956605954e-25
5.2337455e-25
5.544563908e-25
5.897079551e-25
6.30167536e-25
6.771827101e-25
7.325059231e-25
7.984200417e-25
8.779034151e-25
9.748470921e-25
1.094340997e-24
1.243051431e-24
1.429719764e-24
1.665822286e-24
1.966444913e-24
2.351445128e-24
2.846999094e-24
3.487667087e-24
4.319159089e-24
5.402050211e-24
6.81679059e-24
8.670488459e-24
1.110613528e-23
1.431521388e-23
1.855502187e-23
2.41726103e-23
3.163806479e-23
4.159107286e-23
5.490651789e-23
7.278751404e-23
9.689829773e-23
1.295554153e-22
1.7400477e-22
2.348259853e-22
3.185268257e-22
4.344231996e-22
5.959510469e-22
8.226355084e-22
1.143066599e-21
1.599425421e-21
2.254412285e-21
3.20191271e-21
4.583501261e-21
6.614094844e-21
9.621995639e-21
1.411162611e-20
2.086211408e-20
3.108259441e-20
4.665736052e-20
7.053359743e-20
1.073359327e-19
1.643431026e-19
2.530456003e-19
3.916414408e-19
6.090586217e-19
9.514850357e-19
1.493059689e-18
2.353549366e-18
3.727896022e-18
5.936195275e-18
9.509294591e-18
1.533727768e-17
2.493030724e-17
4.088243181e-17
6.770563612e-17
1.133451248e-16
1.919577099e-16
3.290491038e-16
5.710483621e-16
1.003289303e-15
1.784025946e-15
3.209167012e-15
5.835908731e-15
1.071883843e-14
1.985899237e-14
3.70517732e-14
6.947484323e-14
1.30643704e-13
2.459080358e-13
4.627246892e-13
8.699990708e-13
1.634590002e-12
3.069740805e-12
5.761775167e-12
1.080238726e-11
2.021147818e-11
3.769678206e-11
6.999215042e-11
1.291660756e-10
2.365149332e-10
4.289658578e-10
7.692609738e-10
1.36220568e-09
2.377581331e-09
4.090929e-09
6.930976289e-09
1.156066192e-08
1.89175403e-08
3.035062096e-08
4.790376776e-08
7.446783889e-08
1.140779841e-07
1.72315257e-07
2.569356555e-07
3.789488942e-07
5.541628236e-07
8.051178869e-07
1.163420584e-06
1.67568111e-06
2.392797664e-06
3.393666466e-06
4.77490658e-06
6.666867617e-06
9.200916667e-06
1.256706748e-05
1.698060406e-05
2.269638496e-05
2.998084886e-05
3.911383572e-05
5.036122084e-05
6.394882388e-05
8.002724692e-05
9.864579009e-05
0.0001197531336
0.00014307212
0.0001683214859
0.0001949217289
0.0002223197419
0.000249855147
0.0002768554628
0.0003026848966
0.000326852224
0.0003489342753
0.0003685147977
0.0003853986548
0.0003995147529
0.0004108942189
0.0004196517267
0.0004259590338
0.0004300295577
0.0004321137286
0.0004324434521
0.0004312550782
0.0004287533849
0.0004251460366
0.0004206165413
0.0004153291054
0.0004094290884
0.0004030440309
0.000396286142
0.0003892487728
0.0003820151685
0.0003746550089
0.0003672270476
0.0003597804358
0.0003523559533
0.0003449871332
0.0003377012718
0.0003305203274
0.000323461712
0.0003165389829
0.0003097624452
0.0003031396712
0.0002966759485
0.0002903746635
0.0002842376288
0.0002782653625
0.0002724573246
0.0002668121177
0.0002613276559
0.0002560013069
0.0002508300117
0.0002458103844
0.0002409387954
0.0002362114407
0.0002316243992
0.0002271736798
0.0002228552601
0.0002186651183
0.0002145992581
0.0002106537298
0.0002068246461
0.0002031081951
0.0001995006499
0.000195998376
0.0001925978365
0.0001892955961
0.0001860883226
0.0001829727887
0.0001799458721
0.0001770045546
0.0001741459211
0.0001713671582
0.0001686655521
0.0001660384862
0.0001634834388
0.0001609979803
0.0001585797705
0.0001562265561
0.0001539361673
0.0001517065152
0.0001495355892
0.000147421454
0.0001453622465
0.0001433561736
0.0001414015095
0.0001394965927
0.000137639824
0.0001358296637
0.0001340646294
0.0001323432939
0.0001306642826
0.0001290262718
0.0001274279865
0.0001258681983
0.000124345724
0.000122859423
0.0001214081964
0.0001199909849
0.0001186067673
0.0001172545589
0.00011593341
0.0001146424049
0.0001133806601
0.000112147323
0.0001109415711
0.0001097626103
0.0001086096743
0.0001074820231
0.000106378942
0.0001052997408
0.0001042437529
0.000103210334
0.0001021988615
0.0001012087339
0.0001002393694
9.929020577e-05
9.836069905e-05
9.745032327e-05
9.655856958e-05
9.568494565e-05
9.482897501e-05
9.399019653e-05
9.316816378e-05
9.236244453e-05
9.157262021e-05
9.079828538e-05
9.003904733e-05
8.929452551e-05
8.85643512e-05
8.784816699e-05
8.714562642e-05
8.645639358e-05
8.578014276e-05
8.511655802e-05
8.446533292e-05
8.382617015e-05
8.319878121e-05
8.258288612e-05
8.19782131e-05
8.138449831e-05
8.080148559e-05
8.022892614e-05
7.966657833e-05
7.911420743e-05
7.857158539e-05
7.80384906e-05
7.751470768e-05
7.700002729e-05
7.649424591e-05
7.599716565e-05
7.550859408e-05
7.502834404e-05
7.455623347e-05
7.409208525e-05
7.363572705e-05
7.318699115e-05
7.274571431e-05
7.231173763e-05
7.188490642e-05
7.146507004e-05
7.105208181e-05
7.064579885e-05
7.0246082e-05
6.985279567e-05
6.946580775e-05
6.908498951e-05
6.871021548e-05
6.834136335e-05
6.797831389e-05
6.762095087e-05
6.726916092e-05
6.692283351e-05
6.65818608e-05
6.624613761e-05
6.591556134e-05
6.559003185e-05
6.526945145e-05
6.495372477e-05
6.464275874e-05
6.433646251e-05
6.403474737e-05
6.373752671e-05
6.344471593e-05
6.315623245e-05
6.287199557e-05
6.259192647e-05
6.231594815e-05
6.204398537e-05
6.17759646e-05
6.1511814e-05
6.125146332e-05
6.099484393e-05
6.074188869e-05
6.049253201e-05
6.02467097e-05
6.000435903e-05
5.976541862e-05
5.952982845e-05
5.929752979e-05
5.906846521e-05
5.88425785e-05
5.861981465e-05
5.840011984e-05
5.81834414e-05
5.796972776e-05
5.775892844e-05
5.755099404e-05
5.734587617e-05
5.714352745e-05
5.694390151e-05
5.674695289e-05
5.65526371e-05
5.636091054e-05
5.617173052e-05
5.598505518e-05
5.580084355e-05
5.561905544e-05
5.543965149e-05
5.526259312e-05
5.508784251e-05
5.491536258e-05
5.474511701e-05
5.457707015e-05
5.441118708e-05
5.424743353e-05
5.408577591e-05
5.392618128e-05
5.376861732e-05
5.361305233e-05
5.345945521e-05
5.330779546e-05
5.315804314e-05
5.301016889e-05
5.286414388e-05
5.271993982e-05
5.257752896e-05
5.243688405e-05
5.229797835e-05
5.216078559e-05
5.202528e-05
5.189143627e-05
5.175922956e-05
5.162863545e-05
5.149962998e-05
5.137218962e-05
5.124629124e-05
5.112191214e-05
5.099903002e-05
5.087762296e-05
5.075766943e-05
5.063914828e-05
5.052203872e-05
5.040632032e-05
5.029197302e-05
5.017897707e-05
5.006731311e-05
4.995696205e-05
4.984790517e-05
4.974012405e-05
4.963360058e-05
4.952831696e-05
4.942425568e-05
4.932139952e-05
4.921973156e-05
4.911923514e-05
4.901989391e-05
4.892169174e-05
4.88246128e-05
4.872864151e-05
4.863376253e-05
4.853996079e-05
4.844722144e-05
4.835552988e-05
4.826487176e-05
4.817523292e-05
4.808659946e-05
4.799895769e-05
4.791229413e-05
4.782659551e-05
4.774184878e-05
4.765804108e-05
4.757515977e-05
4.749319239e-05
4.741212666e-05
4.733195053e-05
4.72526521e-05
4.717421965e-05
4.709664167e-05
4.701990679e-05
4.694400384e-05
4.68689218e-05
4.679464982e-05
4.672117722e-05
4.664849348e-05
4.657658822e-05
4.650545122e-05
4.643507244e-05
4.636544194e-05
4.629654997e-05
4.622838689e-05
4.616094323e-05
4.609420962e-05
4.602817687e-05
4.596283589e-05
4.589817773e-05
4.583419358e-05
4.577087475e-05
4.570821267e-05
4.564619889e-05
4.558482508e-05
4.552408305e-05
4.546396469e-05
4.540446203e-05
4.534556721e-05
4.528727247e-05
4.522957017e-05
4.517245276e-05
4.511591281e-05
4.505994298e-05
4.500453605e-05
4.494968489e-05
4.489538245e-05
4.484162181e-05
4.478839612e-05
4.473569864e-05
4.46835227e-05
4.463186174e-05
4.458070929e-05
4.453005894e-05
4.44799044e-05
4.443023945e-05
4.438105796e-05
4.433235385e-05
4.428412118e-05
4.423635403e-05
4.41890466e-05
4.414219314e-05
4.409578799e-05
4.404982556e-05
4.400430035e-05
4.395920689e-05
4.391453984e-05
4.387029387e-05
4.382646377e-05
4.378304437e-05
4.374003056e-05
4.369741732e-05
4.365519969e-05
4.361337276e-05
4.357193169e-05
4.353087171e-05
4.349018809e-05
4.34498762e-05
4.340993143e-05
4.337034924e-05
4.333112515e-05
4.329225475e-05
4.325373367e-05
4.32155576e-05
4.317772227e-05
4.31402235e-05
4.310305712e-05
4.306621905e-05
4.302970523e-05
4.299351168e-05
4.295763445e-05
4.292206963e-05
4.288681339e-05
4.285186193e-05
4.28172115e-05
4.278285838e-05
4.274879892e-05
4.271502952e-05
4.268154659e-05
4.264834661e-05
4.261542612e-05
4.258278165e-05
4.255040983e-05
4.251830729e-05
4.248647073e-05
4.245489686e-05
4.242358247e-05
4.239252436e-05
4.236171937e-05
4.233116439e-05
4.230085634e-05
4.227079219e-05
4.224096894e-05
4.22113836e-05
4.218203327e-05
4.215291504e-05
4.212402606e-05
4.20953635e-05
4.206692457e-05
4.203870651e-05
4.201070661e-05
4.198292218e-05
4.195535055e-05
4.19279891e-05
4.190083523e-05
4.18738864e-05
4.184714005e-05
4.18205937e-05
4.179424487e-05
4.176809112e-05
4.174213003e-05
4.171635923e-05
4.169077636e-05
4.166537908e-05
4.164016511e-05
4.161513217e-05
4.159027802e-05
4.156560043e-05
4.154109722e-05
4.151676622e-05
4.149260529e-05
4.146861232e-05
4.144478521e-05
4.14211219e-05
4.139762035e-05
4.137427854e-05
4.135109448e-05
4.13280662e-05
4.130519175e-05
4.128246921e-05
4.125989668e-05
4.123747227e-05
4.121519413e-05
4.119306043e-05
4.117106934e-05
4.114921907e-05
4.112750786e-05
4.110593394e-05
4.108449559e-05
4.106319108e-05
4.104201873e-05
4.102097687e-05
4.100006382e-05
4.097927797e-05
4.095861769e-05
4.093808137e-05
4.091766744e-05
4.089737433e-05
4.08772005e-05
4.08571444e-05
4.083720453e-05
4.081737939e-05
4.07976675e-05
4.077806738e-05
4.07585776e-05
4.073919672e-05
4.071992331e-05
4.070075597e-05
4.068169332e-05
4.066273397e-05
4.064387657e-05
4.062511976e-05
4.060646222e-05
4.058790262e-05
4.056943965e-05
4.055107203e-05
4.053279847e-05
4.051461769e-05
4.049652845e-05
4.047852949e-05
4.046061959e-05
4.044279753e-05
4.042506208e-05
4.040741205e-05
4.038984626e-05
4.037236352e-05
4.035496267e-05
4.033764255e-05
4.0320402e-05
4.03032399e-05
4.028615512e-05
4.026914653e-05
4.025221303e-05
4.023535351e-05
4.021856689e-05
4.020185208e-05
4.018520801e-05
4.01686336e-05
4.01521278e-05
4.013568957e-05
4.011931786e-05
4.010301163e-05
4.008676986e-05
4.007059153e-05
4.005447562e-05
4.003842114e-05
4.002242709e-05
4.000649247e-05
3.999061631e-05
3.997479763e-05
3.995903546e-05
3.994332883e-05
3.99276768e-05
3.991207841e-05
3.989653273e-05
3.988103882e-05
3.986559575e-05
3.985020261e-05
3.983485847e-05
3.981956244e-05
3.980431362e-05
3.978911111e-05
3.977395403e-05
3.975884152e-05
3.974377269e-05
3.97287467e-05
3.97137627e-05
3.969881984e-05
3.968391728e-05
3.966905418e-05
3.965422969e-05
3.963944295e-05
3.962469305e-05
3.960997902e-05
3.959529975e-05
3.958065398e-05
3.956604014e-05
3.955145625e-05
3.943298731e-05
3.924782581e-05
3.907415457e-05
3.89111359e-05
3.875780546e-05
3.861332216e-05
3.847692658e-05
3.834790957e-05
3.822559081e-05
3.810930438e-05
3.799838916e-05
3.78921824e-05
3.77900155e-05
3.769121154e-05
3.759508422e-05
3.750093792e-05
3.740806883e-05
3.731576707e-05
3.722331957e-05
3.713001377e-05
3.703514191e-05
3.693800594e-05
3.683792289e-05
3.673423057e-05
3.66262936e-05
3.65135096e-05
3.63953154e-05
3.627119333e-05
3.614067719e-05
3.600335815e-05
3.585889012e-05
3.570699478e-05
3.554746592e-05
3.538017324e-05
3.520506523e-05
3.502217134e-05
3.483160314e-05
3.463355455e-05
3.442830107e-05
3.421619792e-05
3.399767714e-05
3.377324369e-05
3.354347055e-05
3.330899279e-05
3.307050088e-05
3.282873316e-05
3.258446764e-05
3.233851334e-05
3.209170111e-05
3.184487439e-05
3.159887975e-05
3.135455762e-05
3.11127332e-05
3.087420783e-05
3.063975092e-05
3.041009248e-05
3.018591652e-05
2.996785529e-05
2.975648441e-05
2.955231907e-05
2.935581112e-05
2.916734722e-05
2.898724789e-05
2.881576748e-05
2.865309498e-05
2.84993556e-05
2.835461297e-05
2.8218872e-05
2.809208211e-05
2.797414092e-05
2.78648982e-05
2.776416003e-05
2.767169303e-05
2.758722868e-05
2.751046762e-05
2.744108385e-05
2.737872883e-05
2.73230355e-05
2.727362204e-05
2.723009555e-05
2.719205555e-05
2.715909724e-05
2.71308147e-05
2.710680388e-05
2.708666546e-05
2.707000758e-05
2.705644842e-05
2.704561869e-05
2.70371639e-05
2.70307466e-05
2.70260483e-05
2.702277133e-05
2.70206404e-05
2.701940393e-05
2.701883508e-05
2.701873249e-05
2.701892068e-05
2.701925004e-05
2.701959651e-05
2.70198608e-05
2.701996732e-05
2.701986272e-05
2.701951405e-05
2.701890674e-05
2.701804226e-05
2.701693565e-05
2.701561297e-05
2.701410862e-05
2.701246281e-05
2.701071908e-05
2.700892195e-05
2.700711492e-05
2.700533861e-05
2.70036293e-05
2.700201777e-05
2.700052853e-05
2.699917931e-05
2.699798098e-05
2.699693775e-05
2.699604755e-05
2.699530276e-05
2.699469106e-05
2.699419638e-05
2.699379995e-05
2.699348137e-05
2.699321963e-05
2.699299407e-05
2.699278524e-05
2.699257559e-05
2.699235004e-05
2.699209637e-05
2.699180542e-05
2.69914712e-05
2.699109078e-05
2.699066406e-05
2.699019346e-05
2.698968356e-05
2.698914058e-05
2.698857197e-05
2.698798588e-05
2.698739073e-05
2.69867948e-05
2.698620586e-05
2.698563089e-05
2.698507586e-05
2.69845456e-05
2.698404369e-05
2.698357253e-05
2.698313333e-05
2.698272625e-05
2.698235056e-05
2.698200472e-05
2.698168668e-05
2.698139394e-05
2.698112379e-05
2.698087345e-05
2.698064018e-05
2.69804214e-05
2.698021479e-05
2.698001829e-05
2.697983018e-05
2.697964905e-05
2.697947381e-05
2.697930367e-05
2.697913808e-05
2.697897671e-05
2.69788194e-05
2.697866616e-05
2.697851708e-05
2.697837233e-05
2.697823218e-05
2.697809689e-05
2.697796681e-05
2.697784228e-05
2.697772371e-05
2.69776115e-05
2.69775061e-05
2.697740798e-05
2.697731763e-05
2.697723556e-05
2.697716225e-05
2.697709821e-05
2.697704389e-05
2.697699969e-05
2.697696596e-05
2.697694295e-05
2.697693082e-05
2.697692961e-05
2.697693921e-05
2.69769594e-05
2.697698981e-05
2.697702992e-05
2.697707908e-05
2.697713651e-05
2.697720129e-05
2.697727243e-05
2.697734884e-05
2.697742934e-05
2.697751273e-05
2.697759777e-05
2.697768321e-05
2.697776781e-05
2.697785036e-05
2.697792972e-05
2.697800479e-05
2.697807455e-05
2.69781381e-05
2.697819461e-05
2.69782434e-05
2.697828386e-05
2.697831554e-05
2.69783381e-05
2.697835132e-05
2.697835511e-05
2.697834948e-05
2.697833457e-05
2.69783106e-05
2.69782779e-05
2.697823686e-05
2.697818798e-05
2.697813178e-05
2.697806885e-05
2.697799983e-05
2.697792538e-05
2.697784617e-05
2.69777629e-05
2.697767626e-05
2.697758694e-05
2.697749562e-05
2.697740296e-05
2.697730959e-05
2.697721614e-05
2.697712319e-05
2.697703128e-05
2.697694093e-05
2.697685261e-05
2.697676677e-05
2.697668379e-05
2.697660404e-05
2.69765278e-05
2.697645536e-05
2.697638693e-05
2.697632269e-05
2.697626277e-05
2.697620728e-05
2.697615628e-05
2.697610989e-05
2.697606842e-05
2.697603304e-05
2.697600786e-05
)
;

boundaryField
{
    inlet
    {
        type            fixedValue;
        value           uniform 0;
    }
    outlet
    {
        type            zeroGradient;
    }
    wall
    {
        type            empty;
    }
}


// ************************************************************************* //
