/*--------------------------------*- C++ -*----------------------------------*\
  =========                 |
  \\      /  F ield         | OpenFOAM: The Open Source CFD Toolbox
   \\    /   O peration     | Website:  https://openfoam.org
    \\  /    A nd           | Version:  7
     \\/     M anipulation  |
\*---------------------------------------------------------------------------*/
FoamFile
{
    version     2.0;
    format      ascii;
    class       volScalarField;
    location    "0.000558243009";
    object      OH;
}
// * * * * * * * * * * * * * * * * * * * * * * * * * * * * * * * * * * * * * //

dimensions      [0 0 0 0 0 0 0];

internalField   nonuniform List<scalar> 
1500
(
9.283453106e-29
9.974327791e-29
1.012167064e-28
1.042116779e-28
1.076126834e-28
1.10255688e-28
1.118537483e-28
1.126573174e-28
1.130057128e-28
1.131374126e-28
1.13179035e-28
1.131868278e-28
1.131829602e-28
1.131756241e-28
1.131678635e-28
1.131608422e-28
1.131549547e-28
1.131502312e-28
1.131465346e-28
1.1314368e-28
1.131415041e-28
1.131398913e-28
1.131387705e-28
1.131380954e-28
1.131378224e-28
1.13137896e-28
1.131382425e-28
1.131387745e-28
1.131393993e-28
1.131400294e-28
1.131405914e-28
1.131410306e-28
1.131413128e-28
1.131414221e-28
1.131413573e-28
1.131411285e-28
1.131407527e-28
1.131402518e-28
1.131396502e-28
1.131389734e-28
1.131382477e-28
1.131374984e-28
1.131367497e-28
1.13136023e-28
1.131353358e-28
1.131347014e-28
1.131341277e-28
1.13133618e-28
1.131331709e-28
1.131327816e-28
1.131324427e-28
1.131321456e-28
1.131318816e-28
1.131316426e-28
1.131314224e-28
1.131312164e-28
1.131310223e-28
1.131308399e-28
1.131306708e-28
1.131305187e-28
1.13130388e-28
1.131302846e-28
1.131302145e-28
1.131301842e-28
1.131301997e-28
1.131302668e-28
1.131303899e-28
1.131305726e-28
1.131308167e-28
1.131311221e-28
1.131314873e-28
1.131319083e-28
1.131323793e-28
1.131328929e-28
1.131334396e-28
1.131340088e-28
1.131345886e-28
1.131351667e-28
1.131357301e-28
1.131362663e-28
1.131367629e-28
1.131372086e-28
1.131375931e-28
1.131379076e-28
1.131381448e-28
1.131382994e-28
1.131383678e-28
1.131383485e-28
1.131382418e-28
1.131380499e-28
1.131377769e-28
1.131374283e-28
1.131370114e-28
1.131365347e-28
1.131360077e-28
1.131354409e-28
1.131348453e-28
1.131342321e-28
1.131336127e-28
1.131329979e-28
1.131323982e-28
1.131318228e-28
1.1313128e-28
1.131307765e-28
1.131303176e-28
1.131299067e-28
1.131295457e-28
1.131292343e-28
1.131289712e-28
1.131287531e-28
1.131285758e-28
1.13128434e-28
1.131283218e-28
1.13128233e-28
1.131281616e-28
1.131281015e-28
1.131280476e-28
1.131279954e-28
1.131279414e-28
1.131278831e-28
1.131278192e-28
1.13127749e-28
1.131276731e-28
1.131275925e-28
1.131275089e-28
1.131274245e-28
1.131273414e-28
1.131272619e-28
1.131271882e-28
1.131271222e-28
1.131270657e-28
1.131270203e-28
1.13126987e-28
1.131269669e-28
1.131269611e-28
1.131269703e-28
1.131269957e-28
1.131270381e-28
1.13127099e-28
1.131271797e-28
1.131272818e-28
1.131274071e-28
1.131275575e-28
1.131277346e-28
1.131279403e-28
1.131281759e-28
1.131284424e-28
1.131287403e-28
1.131290696e-28
1.131294295e-28
1.131298185e-28
1.131302346e-28
1.131306747e-28
1.131311354e-28
1.131316125e-28
1.131321014e-28
1.131325973e-28
1.131330949e-28
1.131335891e-28
1.131340746e-28
1.131345465e-28
1.131349999e-28
1.131354304e-28
1.131358338e-28
1.131362063e-28
1.131365445e-28
1.131368452e-28
1.131371056e-28
1.131373233e-28
1.131374958e-28
1.13137621e-28
1.131376971e-28
1.131377223e-28
1.131376955e-28
1.131376154e-28
1.131374815e-28
1.131372937e-28
1.131370526e-28
1.131367595e-28
1.131364166e-28
1.131360271e-28
1.131355954e-28
1.13135127e-28
1.13134629e-28
1.131341095e-28
1.131335784e-28
1.131330465e-28
1.131325258e-28
1.131320293e-28
1.131315701e-28
1.131311615e-28
1.131308159e-28
1.131305445e-28
1.131303569e-28
1.131302601e-28
1.131302587e-28
1.131303544e-28
1.131305466e-28
1.131308324e-28
1.131312071e-28
1.131316656e-28
1.131322022e-28
1.13132812e-28
1.131334907e-28
1.131342348e-28
1.131350407e-28
1.131359041e-28
1.131368182e-28
1.131377721e-28
1.131387496e-28
1.131397275e-28
1.131406759e-28
1.131415586e-28
1.131423359e-28
1.13142968e-28
1.131434204e-28
1.131436702e-28
1.131437128e-28
1.131435681e-28
1.13143285e-28
1.131429441e-28
1.131426559e-28
1.131425558e-28
1.131427936e-28
1.131435191e-28
1.131448644e-28
1.131469234e-28
1.131497315e-28
1.131532482e-28
1.131573444e-28
1.131617979e-28
1.13166299e-28
1.131704689e-28
1.131738893e-28
1.131761456e-28
1.131768776e-28
1.131758375e-28
1.131729473e-28
1.131683511e-28
1.131624567e-28
1.131559622e-28
1.131498695e-28
1.131454937e-28
1.131444898e-28
1.131489294e-28
1.13161449e-28
1.131854113e-28
1.132247073e-28
1.132820089e-28
1.133522027e-28
1.133806912e-28
1.133873067e-28
1.133943882e-28
1.134017795e-28
1.134094339e-28
1.134173391e-28
1.134254949e-28
1.134339056e-28
1.134425781e-28
1.13451521e-28
1.134607438e-28
1.13470257e-28
1.134800719e-28
1.134902004e-28
1.135006552e-28
1.135114498e-28
1.135225982e-28
1.135341152e-28
1.135460167e-28
1.13558319e-28
1.135710396e-28
1.135841965e-28
1.135978091e-28
1.136118974e-28
1.136264827e-28
1.136415872e-28
1.136572343e-28
1.136734488e-28
1.136902564e-28
1.137076844e-28
1.137257614e-28
1.137445175e-28
1.137639843e-28
1.137841949e-28
1.138051844e-28
1.138269895e-28
1.138496487e-28
1.138732025e-28
1.138976937e-28
1.139231669e-28
1.139496694e-28
1.139772504e-28
1.14005962e-28
1.140358588e-28
1.140669983e-28
1.140994405e-28
1.14133249e-28
1.141684902e-28
1.142052341e-28
1.142435539e-28
1.142835269e-28
1.143252341e-28
1.143687605e-28
1.144141954e-28
1.144616327e-28
1.145111708e-28
1.145629133e-28
1.146169687e-28
1.14673451e-28
1.147324801e-28
1.147941815e-28
1.148586874e-28
1.149261361e-28
1.149966731e-28
1.150704511e-28
1.151476302e-28
1.152283787e-28
1.15312873e-28
1.154012985e-28
1.154938494e-28
1.155907299e-28
1.156921541e-28
1.157983467e-28
1.159095436e-28
1.160259922e-28
1.161479523e-28
1.162756963e-28
1.164095104e-28
1.165496946e-28
1.166965637e-28
1.168504484e-28
1.170116953e-28
1.171806684e-28
1.173577494e-28
1.175433392e-28
1.177378582e-28
1.179417476e-28
1.181554704e-28
1.183795126e-28
1.18614384e-28
1.188606197e-28
1.191187812e-28
1.193894579e-28
1.19673268e-28
1.199708606e-28
1.202829168e-28
1.206101511e-28
1.209533137e-28
1.213131918e-28
1.216906114e-28
1.220864394e-28
1.225015856e-28
1.229370047e-28
1.233936986e-28
1.238727187e-28
1.243751682e-28
1.249022049e-28
1.254550437e-28
1.26034959e-28
1.266432883e-28
1.272814348e-28
1.279508706e-28
1.286531399e-28
1.293898626e-28
1.30162738e-28
1.309735481e-28
1.318241619e-28
1.327165393e-28
1.336527353e-28
1.346349043e-28
1.356653048e-28
1.367463042e-28
1.378803832e-28
1.390701417e-28
1.403183034e-28
1.416277213e-28
1.43001384e-28
1.444424207e-28
1.459541078e-28
1.47539875e-28
1.492033118e-28
1.509481739e-28
1.527783902e-28
1.546980702e-28
1.567115107e-28
1.588232035e-28
1.610378431e-28
1.633603347e-28
1.657958018e-28
1.683495951e-28
1.710273003e-28
1.738347472e-28
1.767780187e-28
1.798634591e-28
1.830976841e-28
1.864875897e-28
1.900403619e-28
1.937634864e-28
1.976647587e-28
2.017522936e-28
2.060345361e-28
2.105202709e-28
2.152186336e-28
2.201391208e-28
2.25291601e-28
2.306863252e-28
2.363339379e-28
2.422454882e-28
2.484324408e-28
2.54906687e-28
2.616805559e-28
2.687668261e-28
2.761787366e-28
2.839299983e-28
2.920348056e-28
3.005078478e-28
3.093643205e-28
3.186199374e-28
3.282909419e-28
3.383941187e-28
3.489468057e-28
3.599669056e-28
3.714728978e-28
3.834838506e-28
3.960194331e-28
4.090999272e-28
4.227462404e-28
4.369799178e-28
4.51823155e-28
4.672988112e-28
4.83430422e-28
5.00242213e-28
5.177591138e-28
5.360067722e-28
5.550115687e-28
5.748006317e-28
5.954018538e-28
6.168439077e-28
6.391562638e-28
6.623692081e-28
6.865138615e-28
7.116221994e-28
7.377270735e-28
7.648622339e-28
7.930623533e-28
8.223630522e-28
8.528009266e-28
8.844135764e-28
9.172396371e-28
9.513188128e-28
9.866919123e-28
1.023400887e-27
1.061488873e-27
1.101000234e-27
1.14198061e-27
1.184476969e-27
1.228537662e-27
1.274212481e-27
1.321552723e-27
1.370611262e-27
1.421442618e-27
1.47410304e-27
1.528650588e-27
1.585145231e-27
1.643648936e-27
1.704225782e-27
1.766942072e-27
1.831866449e-27
1.899070036e-27
1.968626566e-27
2.040612542e-27
2.115107389e-27
2.192193633e-27
2.27195708e-27
2.354487016e-27
2.439876417e-27
2.528222176e-27
2.619625341e-27
2.714191372e-27
2.812030421e-27
2.91325762e-27
3.017993397e-27
3.126363808e-27
3.238500897e-27
3.354543077e-27
3.47463553e-27
3.598930648e-27
3.727588489e-27
3.860777273e-27
3.998673905e-27
4.141464536e-27
4.289345159e-27
4.442522245e-27
4.601213425e-27
4.765648208e-27
4.936068757e-27
5.11273071e-27
5.295904059e-27
5.485874084e-27
5.682942356e-27
5.8874278e-27
6.099667833e-27
6.320019586e-27
6.548861194e-27
6.786593191e-27
7.033639989e-27
7.290451469e-27
7.557504685e-27
7.835305688e-27
8.124391515e-27
8.42533234e-27
8.738733839e-27
9.065239652e-27
9.405533528e-27
9.760341414e-27
1.013043534e-26
1.051663604e-26
1.091981437e-26
1.134089808e-26
1.178087581e-26
1.224080098e-26
1.272179623e-26
1.322505834e-26
1.375186356e-26
1.430357349e-26
1.488164155e-26
1.548762019e-26
1.612316924e-26
1.679006382e-26
1.74901965e-26
1.822559292e-26
1.899842297e-26
1.981101136e-26
2.066584827e-26
2.156560284e-26
2.251313922e-26
2.351153377e-26
2.456409327e-26
2.567437494e-26
2.68462086e-26
2.808372124e-26
2.939136432e-26
3.077394419e-26
3.223665586e-26
3.378512075e-26
3.542542891e-26
3.716418623e-26
3.900856743e-26
4.096637566e-26
4.30461096e-26
4.525703909e-26
4.760929074e-26
5.011394472e-26
5.278314463e-26
5.563022231e-26
5.866983987e-26
6.191815159e-26
6.539298883e-26
6.911407145e-26
7.310325001e-26
7.73847836e-26
8.198565908e-26
8.693595837e-26
9.226928177e-26
9.802323639e-26
1.042400008e-25
1.109669783e-25
1.182575546e-25
1.261719772e-25
1.347783777e-25
1.441539628e-25
1.543864034e-25
1.655754578e-25
1.778348726e-25
1.912946118e-25
2.061034773e-25
2.224321961e-25
2.40477065e-25
2.60464266e-25
2.826549886e-25
3.073515268e-25
3.34904561e-25
3.657218825e-25
4.002788838e-25
4.391312197e-25
4.8293015e-25
5.324412073e-25
5.885670128e-25
6.523752843e-25
7.251333807e-25
8.083511079e-25
9.038340182e-25
1.013750093e-24
1.140713571e-24
1.287890822e-24
1.459134688e-24
1.659155702e-24
1.893741242e-24
2.170037197e-24
2.496911374e-24
2.88542407e-24
3.349439493e-24
3.906422684e-24
4.578481258e-24
5.393730788e-24
6.388088791e-24
7.607637065e-24
9.111738768e-24
1.097715889e-23
1.330352016e-23
1.622053809e-23
1.989762837e-23
2.455668021e-23
3.048905813e-23
3.807825518e-23
4.783010458e-23
6.041310739e-23
7.671230723e-23
9.790131917e-23
1.255387019e-22
1.61696994e-22
2.091356095e-22
2.715326658e-22
3.53796062e-22
4.624812105e-22
6.063524369e-22
7.971380877e-22
1.050547098e-21
1.387638875e-21
1.836671232e-21
2.43559607e-21
3.235434108e-21
4.30484461e-21
5.73632273e-21
7.654618393e-21
1.022819439e-20
1.368485296e-20
1.833309591e-20
2.459139506e-20
3.302841307e-20
4.441843872e-20
5.981804504e-20
8.06724793e-20
1.089639009e-19
1.474188237e-19
1.99799797e-19
2.713176996e-19
3.692176854e-19
5.036162747e-19
6.887039321e-19
9.444837933e-19
1.299302578e-18
1.793559803e-18
2.485182189e-18
3.457762831e-18
4.832755733e-18
6.787894146e-18
9.585244278e-18
1.361431033e-17
1.945886666e-17
2.800154039e-17
4.05890163e-17
5.92955032e-17
8.734696473e-17
1.298107784e-16
1.947276274e-16
2.949865373e-16
4.514591863e-16
6.982848915e-16
1.091856249e-15
1.726218683e-15
2.759665451e-15
4.461014768e-15
7.290744873e-15
1.204434873e-14
2.010768946e-14
3.391585261e-14
5.778559148e-14
9.944157651e-14
1.728472631e-13
3.035206232e-13
5.386410191e-13
9.664908281e-13
1.754218727e-12
3.221682789e-12
5.986247529e-12
1.124625114e-11
2.133252768e-11
4.077028342e-11
7.82948601e-11
1.506133622e-10
2.892884322e-10
5.530671495e-10
1.049457928e-09
1.971582056e-09
3.659518673e-09
6.699697138e-09
1.208074203e-08
2.143498987e-08
3.737638999e-08
6.404472989e-08
1.077026322e-07
1.775616899e-07
2.857389983e-07
4.481138737e-07
6.842174961e-07
1.015348601e-06
1.464179762e-06
2.059151362e-06
2.842546628e-06
3.879068904e-06
5.263621428e-06
7.132316296e-06
9.676417499e-06
1.318165157e-05
1.793158352e-05
2.438157323e-05
3.305972853e-05
4.467086498e-05
5.983461685e-05
7.949213798e-05
0.000104657342
0.0001366738973
0.0001764737445
0.0002253309204
0.000284289259
0.0003541554625
0.0004353056909
0.0005275766934
0.0006304586967
0.0007418284481
0.0008600133008
0.0009820793849
0.00110554091
0.001227767133
0.001346415104
0.001459553528
0.001566300674
0.001665478563
0.001756090267
0.001837882544
0.001910907805
0.001975421259
0.002031823472
0.002080611605
0.002122337791
0.002157617886
0.002186768258
0.002210663546
0.00222993529
0.002244919288
0.002256084483
0.002263861644
0.002268640939
0.002270773669
0.002270575616
0.002268328682
0.002264286152
0.002258673978
0.002251693771
0.002243525145
0.00223432791
0.002224244082
0.002213399739
0.002201906709
0.0021898641
0.002177359693
0.002164471182
0.0021512673
0.002137808814
0.002124149421
0.00211033654
0.002096412021
0.002082412772
0.002068371313
0.002054316271
0.002040272818
0.002026263055
0.002012306361
0.001998419689
0.001984617842
0.001970913709
0.001957318477
0.001943841818
0.001930492057
0.001917276319
0.001904200661
0.001891270189
0.001878489163
0.001865861087
0.001853388796
0.001841074524
0.001828919976
0.001816926382
0.001805094552
0.001793424922
0.001781917596
0.001770572384
0.001759388836
0.001748366272
0.001737503809
0.001726800386
0.001716254783
0.001705865647
0.001695631501
0.001685550769
0.001675621782
0.001665842798
0.001656212007
0.001646727547
0.001637387509
0.001628189948
0.001619132889
0.001610214337
0.001601432277
0.001592784685
0.00158426953
0.001575884779
0.001567628401
0.001559498371
0.001551492673
0.001543609299
0.001535846259
0.001528201576
0.001520673291
0.001513259465
0.00150595818
0.001498767538
0.001491685667
0.001484710716
0.001477840861
0.001471074302
0.001464409265
0.001457844005
0.001451376799
0.001445005954
0.001438729805
0.001432546712
0.001426455062
0.001420453272
0.001414539783
0.001408713065
0.001402971616
0.001397313957
0.00139173864
0.001386244239
0.001380829358
0.001375492624
0.001370232689
0.001365048234
0.00135993796
0.001354900596
0.001349934893
0.001345039627
0.001340213596
0.001335455622
0.001330764549
0.001326139244
0.001321578595
0.001317081511
0.001312646924
0.001308273784
0.001303961063
0.001299707753
0.001295512865
0.001291375428
0.001287294492
0.001283269124
0.001279298409
0.00127538145
0.001271517366
0.001267705296
0.001263944393
0.001260233827
0.001256572783
0.001252960464
0.001249396086
0.00124587888
0.001242408094
0.001238982987
0.001235602835
0.001232266926
0.001228974561
0.001225725056
0.001222517739
0.00121935195
0.001216227042
0.00121314238
0.00121009734
0.001207091312
0.001204123695
0.001201193898
0.001198301345
0.001195445467
0.001192625707
0.001189841518
0.001187092362
0.001184377711
0.001181697048
0.001179049864
0.00117643566
0.001173853945
0.001171304237
0.001168786063
0.001166298958
0.001163842466
0.001161416138
0.001159019533
0.001156652218
0.001154313768
0.001152003765
0.001149721799
0.001147467465
0.001145240367
0.001143040115
0.001140866327
0.001138718624
0.001136596637
0.001134500002
0.001132428361
0.001130381363
0.00112835866
0.001126359914
0.00112438479
0.001122432959
0.001120504097
0.001118597886
0.001116714013
0.00111485217
0.001113012056
0.001111193371
0.001109395823
0.001107619123
0.001105862988
0.001104127138
0.0011024113
0.001100715202
0.001099038579
0.001097381169
0.001095742714
0.00109412296
0.001092521659
0.001090938564
0.001089373433
0.001087826028
0.001086296115
0.001084783462
0.001083287843
0.001081809033
0.001080346812
0.001078900964
0.001077471273
0.001076057529
0.001074659525
0.001073277057
0.001071909924
0.001070557926
0.001069220869
0.00106789856
0.001066590809
0.001065297431
0.001064018239
0.001062753054
0.001061501696
0.00106026399
0.00105903976
0.001057828837
0.001056631052
0.001055446238
0.001054274231
0.00105311487
0.001051967995
0.00105083345
0.001049711079
0.00104860073
0.001047502253
0.001046415498
0.00104534032
0.001044276574
0.001043224118
0.001042182811
0.001041152516
0.001040133094
0.001039124412
0.001038126338
0.001037138738
0.001036161486
0.001035194452
0.001034237511
0.001033290539
0.001032353414
0.001031426014
0.001030508221
0.001029599916
0.001028700984
0.001027811309
0.00102693078
0.001026059283
0.00102519671
0.001024342952
0.0010234979
0.00102266145
0.001021833496
0.001021013936
0.001020202668
0.001019399591
0.001018604606
0.001017817614
0.00101703852
0.001016267228
0.001015503642
0.001014747672
0.001013999223
0.001013258206
0.001012524531
0.001011798109
0.001011078853
0.001010366677
0.001009661495
0.001008963224
0.001008271779
0.00100758708
0.001006909044
0.001006237592
0.001005572645
0.001004914124
0.001004261952
0.001003616053
0.001002976352
0.001002342774
0.001001715246
0.001001093695
0.001000478049
0.0009998682381
0.0009992641913
0.0009986658398
0.0009980731151
0.0009974859499
0.0009969042772
0.0009963280313
0.0009957571469
0.0009951915597
0.0009946312061
0.0009940760233
0.0009935259491
0.0009929809221
0.0009924408817
0.000991905768
0.0009913755218
0.0009908500845
0.0009903293983
0.000989813406
0.0009893020512
0.000988795278
0.0009882930312
0.0009877952563
0.0009873018995
0.0009868129073
0.0009863282273
0.0009858478074
0.0009853715961
0.0009848995426
0.0009844315967
0.0009839677087
0.0009835078295
0.0009830519106
0.0009825999041
0.0009821517626
0.0009817074392
0.0009812668876
0.0009808300621
0.0009803969174
0.0009799674088
0.000979541492
0.0009791191235
0.0009787002599
0.0009782848587
0.0009778728775
0.0009774642748
0.0009770590092
0.00097665704
0.0009762583269
0.0009758628301
0.0009754705103
0.0009750813284
0.0009746952461
0.0009743122253
0.0009739322284
0.0009735552183
0.0009731811583
0.0009728100121
0.0009724417438
0.0009720763178
0.0009717136993
0.0009713538535
0.0009709967461
0.0009706423434
0.0009702906118
0.0009699415184
0.0009695950303
0.0009692511153
0.0009689097414
0.0009685708771
0.0009682344912
0.0009679005528
0.0009675690315
0.0009672398972
0.00096691312
0.0009665886705
0.0009662665198
0.0009659466389
0.0009656289996
0.0009653135737
0.0009650003336
0.0009646892517
0.000964380301
0.0009640734548
0.0009637686865
0.0009634659701
0.0009631652796
0.0009628665896
0.0009625698748
0.0009622751104
0.0009619822715
0.000961691334
0.0009614022738
0.0009611150671
0.0009608296904
0.0009605461206
0.0009602643346
0.0009599843099
0.0009597060241
0.0009594294551
0.0009591545811
0.0009588813804
0.0009586098317
0.0009583399141
0.0009580716066
0.0009578048888
0.0009575397403
0.0009572761412
0.0009570140715
0.0009567535117
0.0009564944425
0.0009562368449
0.0009559806998
0.0009557259888
0.0009554726934
0.0009552207955
0.0009549702771
0.0009547211204
0.000954473308
0.0009542268226
0.0009539816471
0.0009537377646
0.0009534951585
0.0009532538123
0.0009530137098
0.0009527748349
0.0009525371719
0.0009523007049
0.0009520654187
0.0009518312979
0.0009515983274
0.0009513664924
0.0009511357782
0.0009509061702
0.0009506776542
0.0009504502159
0.0009502238415
0.000949998517
0.0009497742289
0.0009495509636
0.000949328708
0.0009491074488
0.0009488871731
0.0009486678681
0.0009484495212
0.0009482321198
0.0009480156517
0.0009478001046
0.0009475854665
0.0009473717255
0.00094715887
0.0009469468882
0.0009467357689
0.0009465255005
0.0009463160721
0.0009461074726
0.000945899691
0.0009456927166
0.0009454865388
0.0009452811472
0.0009450765312
0.0009448726807
0.0009446695856
0.0009444672359
0.0009442656217
0.0009440647332
0.0009438645609
0.0009436650953
0.0009434663268
0.0009432682464
0.0009430708447
0.0009428741129
0.0009426780419
0.0009424826229
0.0009422878472
0.0009420937063
0.0009419001916
0.0009417072948
0.0009415150076
0.000941323322
0.0009411322298
0.0009409417231
0.0009407517941
0.0009405624352
0.0009403736388
0.0009401853974
0.0009399977036
0.0009398105503
0.0009396239304
0.000939437837
0.0009392522631
0.0009390672022
0.0009388826477
0.0009386985931
0.0009385150324
0.0009383319592
0.0009381493678
0.0009379672522
0.0009377856067
0.0009376044258
0.000937423704
0.0009372434357
0.0009370636154
0.0009368842375
0.0009367052961
0.000936526785
0.0009363486973
0.0009361710255
0.0009359937609
0.0009358168938
0.0009356404126
0.0009354643038
0.000935288552
0.0009351131391
0.0009349380451
0.0009347632477
0.0009345887246
0.0009331704208
0.0009309580635
0.0009288873508
0.0009269527423
0.0009251448641
0.0009234549096
0.0009218746947
0.0009203963332
0.0009190119899
0.0009177137273
0.0009164934168
0.0009153426872
0.0009142528996
0.0009132151424
0.0009122202408
0.0009112587801
0.000910321139
0.0009093975345
0.0009084780745
0.0009075528175
0.0009066118398
0.0009056453073
0.0009046435512
0.0009035971476
0.0009024969984
0.0009013344131
0.0009001011905
0.0008987896997
0.0008973929576
0.000895904704
0.0008943194723
0.000892632654
0.0008908405574
0.0008889404593
0.0008869306473
0.0008848104541
0.0008825802809
0.0008802416106
0.0008777970102
0.0008752501198
0.0008726056312
0.0008698692528
0.0008670476629
0.0008641484504
0.0008611800434
0.000858151627
0.0008550730508
0.0008519547265
0.0008488075183
0.0008456426269
0.0008424714684
0.0008393055513
0.0008361563518
0.0008330351923
0.0008299531217
0.000826920802
0.0008239484028
0.0008210455038
0.0008182210096
0.0008154830747
0.0008128390423
0.0008102953963
0.0008078577269
0.0008055307091
0.0008033180952
0.0008012227195
0.0007992465136
0.0007973905339
0.0007956549962
0.0007940393192
0.0007925421746
0.0007911615409
0.0007898947621
0.0007887386081
0.0007876893362
0.0007867427528
0.0007858942756
0.0007851389929
0.0007844717222
0.000783887067
0.0007833794708
0.0007829432691
0.0007825727392
0.0007822621483
0.0007820057986
0.0007817980715
0.0007816334691
0.0007815066544
0.0007814124887
0.000781346068
0.0007813027553
0.0007812782114
0.0007812684215
0.0007812697178
0.0007812787987
0.0007812927419
0.0007813090127
0.0007813254663
0.0007813403446
0.0007813522661
0.0007813602099
0.0007813634947
0.0007813617513
0.000781354891
0.0007813430702
0.0007813266517
0.0007813061639
0.0007812822604
0.0007812556784
0.0007812271997
0.0007811976144
0.0007811676871
0.000781138129
0.0007811095735
0.0007810825585
0.0007810575131
0.0007810347513
0.0007810144698
0.0007809967515
0.0007809815732
0.0007809688173
0.0007809582858
0.0007809497166
0.0007809428015
0.0007809372035
0.0007809325742
0.0007809285701
0.0007809248666
0.0007809211704
0.0007809172283
0.0007809128344
0.0007809078341
0.0007809021247
0.0007808956545
0.0007808884195
0.0007808804581
0.000780871844
0.0007808626797
0.0007808530878
0.0007808432034
0.0007808331664
0.0007808231146
0.0007808131777
0.0007808034725
0.0007807940992
0.0007807851389
0.0007807766526
0.0007807686809
0.000780761245
0.0007807543484
0.0007807479794
0.0007807421133
0.000780736716
0.0007807317464
0.0007807271595
0.0007807229088
0.0007807189487
0.000780715236
0.0007807117317
0.0007807084012
0.0007807052154
0.0007807021507
0.0007806991885
0.0007806963151
0.000780693521
0.0007806908007
0.0007806881512
0.0007806855723
0.0007806830653
0.0007806806332
0.0007806782799
0.00078067601
0.0007806738289
0.0007806717426
0.0007806697573
0.00078066788
0.000780666118
0.000780664479
0.0007806629713
0.0007806616029
0.0007806603824
0.0007806593176
0.0007806584163
0.0007806576851
0.0007806571297
0.0007806567544
0.0007806565617
0.0007806565522
0.0007806567243
0.0007806570742
0.0007806575957
0.00078065828
0.0007806591164
0.0007806600918
0.0007806611911
0.0007806623976
0.000780663693
0.0007806650579
0.0007806664721
0.0007806679149
0.0007806693655
0.0007806708032
0.0007806722081
0.0007806735608
0.0007806748431
0.0007806760382
0.0007806771307
0.0007806781073
0.0007806789561
0.0007806796674
0.0007806802336
0.0007806806489
0.0007806809098
0.0007806810147
0.0007806809638
0.0007806807593
0.0007806804049
0.000780679906
0.0007806792693
0.0007806785025
0.0007806776147
0.0007806766156
0.0007806755154
0.0007806743251
0.0007806730557
0.0007806717187
0.0007806703254
0.0007806688871
0.0007806674149
0.0007806659195
0.0007806644114
0.0007806629005
0.0007806613963
0.0007806599077
0.0007806584431
0.00078065701
0.0007806556156
0.000780654266
0.000780652967
0.0007806517234
0.0007806505393
0.0007806494183
0.0007806483631
0.0007806473757
0.0007806464577
0.0007806456102
0.0007806448347
0.0007806441367
0.0007806435354
0.0007806431006
)
;

boundaryField
{
    inlet
    {
        type            fixedValue;
        value           uniform 0;
    }
    outlet
    {
        type            zeroGradient;
    }
    wall
    {
        type            empty;
    }
}


// ************************************************************************* //
