/*--------------------------------*- C++ -*----------------------------------*\
  =========                 |
  \\      /  F ield         | OpenFOAM: The Open Source CFD Toolbox
   \\    /   O peration     | Website:  https://openfoam.org
    \\  /    A nd           | Version:  7
     \\/     M anipulation  |
\*---------------------------------------------------------------------------*/
FoamFile
{
    version     2.0;
    format      ascii;
    class       volScalarField;
    location    "0.000558243009";
    object      OH_0;
}
// * * * * * * * * * * * * * * * * * * * * * * * * * * * * * * * * * * * * * //

dimensions      [0 0 0 0 0 0 0];

internalField   nonuniform List<scalar> 
1500
(
9.283827772e-29
9.974336194e-29
1.012179529e-28
1.042142725e-28
1.076154862e-28
1.102578125e-28
1.118550311e-28
1.126579997e-28
1.130060893e-28
1.131376873e-28
1.131793155e-28
1.1318716e-28
1.13183359e-28
1.131760903e-28
1.131683916e-28
1.131614235e-28
1.131555787e-28
1.131508861e-28
1.131472078e-28
1.131443589e-28
1.131421761e-28
1.131405445e-28
1.131393939e-28
1.131386789e-28
1.131383574e-28
1.131383751e-28
1.131386601e-28
1.131391263e-28
1.131396825e-28
1.131402427e-28
1.131407349e-28
1.131411059e-28
1.131413224e-28
1.131413697e-28
1.131412477e-28
1.13140967e-28
1.131405456e-28
1.131400058e-28
1.131393726e-28
1.13138672e-28
1.131379303e-28
1.131371734e-28
1.131364254e-28
1.131357077e-28
1.131350378e-28
1.131344286e-28
1.131338879e-28
1.131334181e-28
1.131330175e-28
1.131326803e-28
1.131323984e-28
1.131321621e-28
1.131319617e-28
1.131317882e-28
1.13131634e-28
1.131314936e-28
1.131313635e-28
1.131312425e-28
1.131311314e-28
1.131310327e-28
1.131309504e-28
1.131308894e-28
1.131308554e-28
1.131308544e-28
1.131308923e-28
1.131309745e-28
1.131311055e-28
1.13131289e-28
1.131315269e-28
1.131318197e-28
1.13132166e-28
1.131325625e-28
1.13133004e-28
1.131334834e-28
1.13133992e-28
1.131345198e-28
1.131350557e-28
1.131355877e-28
1.131361037e-28
1.131365916e-28
1.131370395e-28
1.131374365e-28
1.131377728e-28
1.131380399e-28
1.131382309e-28
1.131383407e-28
1.131383659e-28
1.131383052e-28
1.131381592e-28
1.131379303e-28
1.131376225e-28
1.131372418e-28
1.131367955e-28
1.131362922e-28
1.131357416e-28
1.131351545e-28
1.13134542e-28
1.131339154e-28
1.131332862e-28
1.131326655e-28
1.131320637e-28
1.131314902e-28
1.131309533e-28
1.131304598e-28
1.131300147e-28
1.131296217e-28
1.131292821e-28
1.13128996e-28
1.131287615e-28
1.131285752e-28
1.131284327e-28
1.131283283e-28
1.131282559e-28
1.13128209e-28
1.13128181e-28
1.131281658e-28
1.131281578e-28
1.131281521e-28
1.13128145e-28
1.131281335e-28
1.131281158e-28
1.131280913e-28
1.131280598e-28
1.131280223e-28
1.131279801e-28
1.131279349e-28
1.131278888e-28
1.131278438e-28
1.131278018e-28
1.131277645e-28
1.131277335e-28
1.131277102e-28
1.131276957e-28
1.13127691e-28
1.131276969e-28
1.131277143e-28
1.131277443e-28
1.13127788e-28
1.131278466e-28
1.131279218e-28
1.131280153e-28
1.13128129e-28
1.13128265e-28
1.131284251e-28
1.131286114e-28
1.131288254e-28
1.131290685e-28
1.131293413e-28
1.131296442e-28
1.131299767e-28
1.131303375e-28
1.131307248e-28
1.13131136e-28
1.131315679e-28
1.131320164e-28
1.131324774e-28
1.13132946e-28
1.131334174e-28
1.131338863e-28
1.131343478e-28
1.131347969e-28
1.131352287e-28
1.131356387e-28
1.131360227e-28
1.131363768e-28
1.131366974e-28
1.131369812e-28
1.131372251e-28
1.131374265e-28
1.131375827e-28
1.131376916e-28
1.131377512e-28
1.131377595e-28
1.131377152e-28
1.131376171e-28
1.131374648e-28
1.131372582e-28
1.131369978e-28
1.131366851e-28
1.131363224e-28
1.131359131e-28
1.131354616e-28
1.131349737e-28
1.131344565e-28
1.131339183e-28
1.131333691e-28
1.131328197e-28
1.131322823e-28
1.131317698e-28
1.131312955e-28
1.131308726e-28
1.131305136e-28
1.131302298e-28
1.131300306e-28
1.131299233e-28
1.131299124e-28
1.131299999e-28
1.131301851e-28
1.131304651e-28
1.131308357e-28
1.131312915e-28
1.131318273e-28
1.13132438e-28
1.131331195e-28
1.131338684e-28
1.131346811e-28
1.131355533e-28
1.13136478e-28
1.131374446e-28
1.131384363e-28
1.1313943e-28
1.131403955e-28
1.131412964e-28
1.131420926e-28
1.131427442e-28
1.131432165e-28
1.131434864e-28
1.131435492e-28
1.131434247e-28
1.131431621e-28
1.13142842e-28
1.131425754e-28
1.131424977e-28
1.131427591e-28
1.131435097e-28
1.131448815e-28
1.131469682e-28
1.13149805e-28
1.131533505e-28
1.131574748e-28
1.131619541e-28
1.131664777e-28
1.131706649e-28
1.131740966e-28
1.131763567e-28
1.131770848e-28
1.131760333e-28
1.131731253e-28
1.131685074e-28
1.131625905e-28
1.131560772e-28
1.131499745e-28
1.131456034e-28
1.131446248e-28
1.131491166e-28
1.131617208e-28
1.13185806e-28
1.132252685e-28
1.132827829e-28
1.13353227e-28
1.133818238e-28
1.133884698e-28
1.133955759e-28
1.134029894e-28
1.134106653e-28
1.134185922e-28
1.134267697e-28
1.134352024e-28
1.134438974e-28
1.13452863e-28
1.13462109e-28
1.134716458e-28
1.134814848e-28
1.134916379e-28
1.135021178e-28
1.135129379e-28
1.135241124e-28
1.135356561e-28
1.135475849e-28
1.135599151e-28
1.135726641e-28
1.135858503e-28
1.135994927e-28
1.136136116e-28
1.136282283e-28
1.13643365e-28
1.136590453e-28
1.136752937e-28
1.136921363e-28
1.137096002e-28
1.137277142e-28
1.137465083e-28
1.137660143e-28
1.137862654e-28
1.138072966e-28
1.138291447e-28
1.138518484e-28
1.138754482e-28
1.138999869e-28
1.139255094e-28
1.139520627e-28
1.139796965e-28
1.140084629e-28
1.140384165e-28
1.140696148e-28
1.141021183e-28
1.141359903e-28
1.141712976e-28
1.142081102e-28
1.142465016e-28
1.142865491e-28
1.143283338e-28
1.14371941e-28
1.144174602e-28
1.144649854e-28
1.145146152e-28
1.145664535e-28
1.146206088e-28
1.146771956e-28
1.147363339e-28
1.147981495e-28
1.148627746e-28
1.149303482e-28
1.150010158e-28
1.150749306e-28
1.151522529e-28
1.152331513e-28
1.153178027e-28
1.154063927e-28
1.154991161e-28
1.155961773e-28
1.156977911e-28
1.158041825e-28
1.159155878e-28
1.160322552e-28
1.161544447e-28
1.162824296e-28
1.164164964e-28
1.165569459e-28
1.167040936e-28
1.168582707e-28
1.170198247e-28
1.171891203e-28
1.173665401e-28
1.175524858e-28
1.177473786e-28
1.179516607e-28
1.181657962e-28
1.18390272e-28
1.186255992e-28
1.188723138e-28
1.191309788e-28
1.194021846e-28
1.196865509e-28
1.199847282e-28
1.202973991e-28
1.206252797e-28
1.209691218e-28
1.213297143e-28
1.217078851e-28
1.221045031e-28
1.225204799e-28
1.229567726e-28
1.234143851e-28
1.238943712e-28
1.243978368e-28
1.249259421e-28
1.254799046e-28
1.260610018e-28
1.266705742e-28
1.273100281e-28
1.279808389e-28
1.286845543e-28
1.294227981e-28
1.301972731e-28
1.310097656e-28
1.318621487e-28
1.327563869e-28
1.336945397e-28
1.346787665e-28
1.357113309e-28
1.367946056e-28
1.379310772e-28
1.391233512e-28
1.403741575e-28
1.416863559e-28
1.430629413e-28
1.445070502e-28
1.460219665e-28
1.476111274e-28
1.492781306e-28
1.510267401e-28
1.528608938e-28
1.547847102e-28
1.568024957e-28
1.589187522e-28
1.611381844e-28
1.634657084e-28
1.65906459e-28
1.684657985e-28
1.71149325e-28
1.739628809e-28
1.769125621e-28
1.800047268e-28
1.832460047e-28
1.866433066e-28
1.902038339e-28
1.939350879e-28
1.978448806e-28
2.019413438e-28
2.062329399e-28
2.10728472e-28
2.154370942e-28
2.203683226e-28
2.255320457e-28
2.309385351e-28
2.365984567e-28
2.425228815e-28
2.487232968e-28
2.552116171e-28
2.620001957e-28
2.691018357e-28
2.765298013e-28
2.842978297e-28
2.924201418e-28
3.009114545e-28
3.097869914e-28
3.190624954e-28
3.287542392e-28
3.388790379e-28
3.494542605e-28
3.604978414e-28
3.720282927e-28
3.840647158e-28
3.966268138e-28
4.097349035e-28
4.234099279e-28
4.376734684e-28
4.525477577e-28
4.680556927e-28
4.842208478e-28
5.01067488e-28
5.186205832e-28
5.369058222e-28
5.559496275e-28
5.757791704e-28
5.96422387e-28
6.179079948e-28
6.402655096e-28
6.63525264e-28
6.877184264e-28
7.128770209e-28
7.390339488e-28
7.66223011e-28
7.944789322e-28
8.238373864e-28
8.54335024e-28
8.860095012e-28
9.188995109e-28
9.530448164e-28
9.884862874e-28
1.025265938e-27
1.063426968e-27
1.103013809e-27
1.14407217e-27
1.18664909e-27
1.230792993e-27
1.276553747e-27
1.32398273e-27
1.373132898e-27
1.424058857e-27
1.476816945e-27
1.531465318e-27
1.588064038e-27
1.646675179e-27
1.707362926e-27
1.770193691e-27
1.83523624e-27
1.902561816e-27
1.972244285e-27
2.044360286e-27
2.118989391e-27
2.196214276e-27
2.27612091e-27
2.358798751e-27
2.444340956e-27
2.532844607e-27
2.624410957e-27
2.71914568e-27
2.817159156e-27
2.91856676e-27
3.023489175e-27
3.132052733e-27
3.244389766e-27
3.360638996e-27
3.480945934e-27
3.605463319e-27
3.734351582e-27
3.867779338e-27
4.005923912e-27
4.148971904e-27
4.297119782e-27
4.450574527e-27
4.60955431e-27
4.774289218e-27
4.945022026e-27
5.122009029e-27
5.305520915e-27
5.495843709e-27
5.693279773e-27
5.898148876e-27
6.110789338e-27
6.331559248e-27
6.560837767e-27
6.799026519e-27
7.046551081e-27
7.303862574e-27
7.571439367e-27
7.849788913e-27
8.139449724e-27
8.440993553e-27
8.755027878e-27
9.082198775e-27
9.423193408e-27
9.778737345e-27
1.014960282e-26
1.053661201e-26
1.094063992e-26
1.136261843e-26
1.180353992e-26
1.226446146e-26
1.274650944e-26
1.325088453e-26
1.377886714e-26
1.43318232e-26
1.491121037e-26
1.551858483e-26
1.615560852e-26
1.682405717e-26
1.75258306e-26
1.826296225e-26
1.903763021e-26
1.985216974e-26
2.070907869e-26
2.161103201e-26
2.25609018e-26
2.356177367e-26
2.461696449e-26
2.573004233e-26
2.690484867e-26
2.814552304e-26
2.945653045e-26
3.084269184e-26
3.230921803e-26
3.386174755e-26
3.550638896e-26
3.724976824e-26
3.909908195e-26
4.106215697e-26
4.314751783e-26
4.536446257e-26
4.772314854e-26
5.02346896e-26
5.291126622e-26
5.57662507e-26
5.881434961e-26
6.207176622e-26
6.55563859e-26
6.928798818e-26
7.328848974e-26
7.758222297e-26
8.219625624e-26
8.716076223e-26
9.250944255e-26
9.828001759e-26
1.045147928e-25
1.112613141e-25
1.185731276e-25
1.265106614e-25
1.351422514e-25
1.445453355e-25
1.548078469e-25
1.660298418e-25
1.783254062e-25
1.918248914e-25
2.06677542e-25
2.230545919e-25
2.411529202e-25
2.611993784e-25
2.834559274e-25
3.082257522e-25
3.358605644e-25
3.667693512e-25
4.014288954e-25
4.403964717e-25
4.843252317e-25
5.339829243e-25
5.902747724e-25
6.542715584e-25
7.27244261e-25
8.107069761e-25
9.064703573e-25
1.016708474e-24
1.144042858e-24
1.29164865e-24
1.463389285e-24
1.663988143e-24
1.899248251e-24
2.176334651e-24
2.50413869e-24
2.893749739e-24
3.359068073e-24
3.917603685e-24
4.591520458e-24
5.409004709e-24
6.406063265e-24
7.628891125e-24
9.136995465e-24
1.100732515e-23
1.333973843e-23
1.626425343e-23
1.995067567e-23
2.462139791e-23
3.056843645e-23
3.817612977e-23
4.795140969e-23
6.056420698e-23
7.690142852e-23
9.813912047e-23
1.258390167e-22
1.620778064e-22
2.096203325e-22
2.721518189e-22
3.545894693e-22
4.635008852e-22
6.076663626e-22
7.988351782e-22
1.0527437e-21
1.390487291e-21
1.840370896e-21
2.440408194e-21
3.241700865e-21
4.313014268e-21
5.746982558e-21
7.668537731e-21
1.024638098e-20
1.37086266e-20
1.836418464e-20
2.463206059e-20
3.308161433e-20
4.448804454e-20
5.990911038e-20
8.079160349e-20
1.091196913e-19
1.47622495e-19
2.000659517e-19
2.7166534e-19
3.696714766e-19
5.042080349e-19
6.894743759e-19
9.454845914e-19
1.300598696e-18
1.795231919e-18
2.487328729e-18
3.460500755e-18
4.836218348e-18
6.792222728e-18
9.590567795e-18
1.362070317e-17
1.946626703e-17
2.800959929e-17
4.059682594e-17
5.930111654e-17
8.734654745e-17
1.297971328e-16
1.946876243e-16
2.948966972e-16
4.512781993e-16
6.979411929e-16
1.091228169e-15
1.725104905e-15
2.757748275e-15
4.457839656e-15
7.285814e-15
1.203765551e-14
2.010167142e-14
3.392145311e-14
5.783934071e-14
9.965034035e-14
1.734983155e-13
3.053367905e-13
5.433379126e-13
9.779193842e-13
1.780546803e-12
3.279212628e-12
6.105332691e-12
1.147872431e-11
2.175665883e-11
4.14807264e-11
7.934613858e-11
1.518478039e-10
2.899116156e-10
5.50721686e-10
1.038376072e-09
1.93916913e-09
3.580468718e-09
6.526584903e-09
1.172981558e-08
2.076936412e-08
3.618033337e-08
6.202870969e-08
1.045004672e-07
1.727874331e-07
2.788581135e-07
4.383425069e-07
6.707484149e-07
9.970147878e-07
1.438776854e-06
2.02260572e-06
2.788646248e-06
3.799302159e-06
5.145773193e-06
6.959504115e-06
9.426238058e-06
1.282233133e-05
1.743295086e-05
2.370568189e-05
3.216755376e-05
4.351257015e-05
5.838341232e-05
7.771570312e-05
0.0001025361557
0.0001341042259
0.0001735803039
0.0002221379742
0.0002808296658
0.0003504646017
0.0004314363483
0.0005235711741
0.0006261433526
0.000737321268
0.0008553434969
0.0009772506819
0.001100572358
0.00122271544
0.001341375777
0.001454653734
0.001561383911
0.001660667629
0.001751477078
0.001833531173
0.001906845673
0.001971652062
0.002028328657
0.002077364236
0.002119321232
0.00215481645
0.002184265682
0.002208438469
0.002227919664
0.002243107742
0.002254472221
0.002262441431
0.002267403247
0.002269707537
0.002269669252
0.002267570664
0.002263665196
0.002258179366
0.002251315378
0.002243253433
0.002234153896
0.002224159312
0.002213396258
0.002201977036
0.002190001213
0.00217755701
0.002164722551
0.002151566984
0.002138151479
0.002124530122
0.002110750707
0.002096855444
0.002082881582
0.002068861967
0.002054825536
0.00204079775
0.002026800983
0.002012854866
0.001998976591
0.001985181178
0.001971481719
0.001957889586
0.001944414623
0.001931065312
0.00191784892
0.001904771634
0.001891838679
0.001879054422
0.001866422465
0.001853945728
0.001841626527
0.001829466636
0.00181746735
0.001805629534
0.001793953677
0.001782439928
0.001771088138
0.001759897892
0.001748868543
0.001737999235
0.001727288932
0.001716736438
0.001706340417
0.00169609941
0.001686011854
0.001676076095
0.0016662904
0.00165665297
0.001647161949
0.001637815436
0.001628611492
0.001619548147
0.001610623408
0.001601835263
0.001593181692
0.001584660665
0.001576270149
0.001568008116
0.00155987254
0.001551861404
0.001543972701
0.001536204441
0.001528554644
0.001521021351
0.001513602623
0.001506296538
0.001499101199
0.00149201473
0.001485035281
0.001478161024
0.001471390158
0.001464720908
0.001458151525
0.001451680286
0.001445305496
0.001439025487
0.001432838617
0.001426743272
0.001420737867
0.001414820841
0.001408990663
0.001403245826
0.001397584853
0.001392006291
0.001386508715
0.001381090726
0.001375750948
0.001370488034
0.001365300661
0.00136018753
0.001355147368
0.001350178924
0.001345280972
0.001340452309
0.001335691757
0.001330998156
0.001326370374
0.001321807296
0.001317307831
0.001312870908
0.001308495477
0.00130418051
0.001299924995
0.001295727943
0.001291588382
0.001287505362
0.001283477946
0.001279505221
0.001275586287
0.001271720264
0.001267906288
0.001264143511
0.001260431104
0.00125676825
0.00125315415
0.001249588021
0.001246069093
0.001242596611
0.001239169836
0.001235788041
0.001232450515
0.001229156557
0.001225905484
0.001222696621
0.001219529308
0.001216402899
0.001213316757
0.001210270258
0.00120726279
0.001204293752
0.001201362554
0.001198468618
0.001195611375
0.001192790266
0.001190004745
0.001187254273
0.001184538323
0.001181856375
0.001179207922
0.001176592462
0.001174009506
0.001171458569
0.001168939181
0.001166450873
0.001163993191
0.001161565685
0.001159167914
0.001156799444
0.00115445985
0.001152148714
0.001149865624
0.001147610177
0.001145381975
0.001143180629
0.001141005755
0.001138856976
0.001136733921
0.001134636227
0.001132563534
0.001130515492
0.001128491754
0.001126491979
0.001124515833
0.001122562987
0.001120633117
0.001118725904
0.001116841036
0.001114978205
0.001113137107
0.001111317444
0.001109518924
0.001107741258
0.001105984162
0.001104247356
0.001102530566
0.001100833522
0.001099155957
0.00109749761
0.001095858222
0.00109423754
0.001092635314
0.001091051298
0.00108948525
0.001087936933
0.00108640611
0.001084892552
0.00108339603
0.001081916322
0.001080453205
0.001079006463
0.001077575883
0.001076161253
0.001074762365
0.001073379016
0.001072011004
0.001070658131
0.0010693202
0.001067997021
0.001066688402
0.001065394157
0.001064114102
0.001062848056
0.001061595838
0.001060357274
0.00105913219
0.001057920413
0.001056721776
0.001055536112
0.001054363257
0.00105320305
0.001052055331
0.001050919943
0.001049796731
0.001048685542
0.001047586226
0.001046498635
0.001045422621
0.001044358041
0.001043304752
0.001042262614
0.001041231488
0.001040211237
0.001039201728
0.001038202826
0.001037214402
0.001036236325
0.001035268468
0.001034310705
0.001033362911
0.001032424966
0.001031496746
0.001030578135
0.001029669012
0.001028769263
0.001027878773
0.001026997429
0.001026125118
0.001025261732
0.001024407161
0.001023561297
0.001022724036
0.001021895272
0.001021074903
0.001020262826
0.001019458941
0.001018663148
0.00101787535
0.00101709545
0.001016323352
0.001015558962
0.001014802187
0.001014052935
0.001013311115
0.001012576637
0.001011849414
0.001011129357
0.00101041638
0.001009710399
0.001009011328
0.001008319085
0.001007633587
0.001006954753
0.001006282504
0.001005616761
0.001004957444
0.001004304477
0.001003657783
0.001003017288
0.001002382916
0.001001754595
0.001001132251
0.001000515813
0.0009999052107
0.0009993003731
0.0009987012312
0.0009981077169
0.0009975197625
0.0009969373013
0.0009963602675
0.0009957885958
0.0009952222219
0.0009946610822
0.0009941051138
0.0009935542548
0.0009930084436
0.0009924676197
0.0009919317231
0.0009914006946
0.0009908744758
0.0009903530087
0.0009898362362
0.0009893241019
0.00098881655
0.0009883135252
0.000987814973
0.0009873208396
0.0009868310717
0.0009863456168
0.0009858644226
0.000985387438
0.000984914612
0.0009844458943
0.0009839812355
0.0009835205864
0.0009830638985
0.0009826111238
0.0009821622151
0.0009817171254
0.0009812758085
0.0009808382187
0.0009804043106
0.0009799740397
0.0009795473616
0.0009791242328
0.0009787046101
0.0009782884508
0.0009778757127
0.0009774663541
0.0009770603338
0.0009766576111
0.0009762581458
0.0009758618979
0.0009754688282
0.0009750788977
0.0009746920681
0.0009743083013
0.0009739275598
0.0009735498065
0.0009731750045
0.0009728031178
0.0009724341104
0.0009720679469
0.0009717045922
0.0009713440118
0.0009709861713
0.0009706310371
0.0009702785756
0.0009699287538
0.000969581539
0.000969236899
0.0009688948018
0.0009685552159
0.0009682181101
0.0009678834536
0.000967551216
0.0009672213672
0.0009668938774
0.0009665687173
0.0009662458577
0.00096592527
0.0009656069258
0.0009652907971
0.0009649768561
0.0009646650754
0.0009643554281
0.0009640478873
0.0009637424267
0.00096343902
0.0009631376415
0.0009628382658
0.0009625408675
0.0009622454218
0.0009619519042
0.0009616602902
0.0009613705559
0.0009610826775
0.0009607966316
0.0009605123951
0.0009602299449
0.0009599492586
0.0009596703137
0.0009593930882
0.0009591175603
0.0009588437085
0.0009585715114
0.000958300948
0.0009580319976
0.0009577646396
0.0009574988538
0.0009572346201
0.0009569719188
0.0009567107304
0.0009564510354
0.000956192815
0.0009559360502
0.0009556807224
0.0009554268133
0.0009551743048
0.0009549231788
0.0009546734178
0.0009544250042
0.0009541779209
0.0009539321506
0.0009536876766
0.0009534444823
0.0009532025512
0.0009529618672
0.0009527224141
0.0009524841762
0.0009522471379
0.0009520112837
0.0009517765984
0.0009515430669
0.0009513106744
0.0009510794062
0.0009508492479
0.000950620185
0.0009503922035
0.0009501652894
0.000949939429
0.0009497146086
0.0009494908147
0.0009492680342
0.0009490462538
0.0009488254607
0.000948605642
0.0009483867852
0.0009481688777
0.0009479519073
0.0009477358618
0.0009475207291
0.0009473064974
0.0009470931549
0.0009468806902
0.0009466690917
0.0009464583482
0.0009462484485
0.0009460393817
0.0009458311367
0.0009456237029
0.0009454170697
0.0009452112265
0.0009450061631
0.0009448018691
0.0009445983346
0.0009443955494
0.0009441935037
0.0009439921878
0.0009437915922
0.0009435917072
0.0009433925235
0.0009431940318
0.000942996223
0.0009427990881
0.0009426026181
0.0009424068042
0.0009422116378
0.0009420171102
0.000941823213
0.0009416299378
0.0009414372763
0.0009412452205
0.0009410537624
0.0009408628939
0.0009406726073
0.000940482895
0.0009402937493
0.0009401051628
0.0009399171282
0.0009397296383
0.0009395426859
0.0009393562642
0.0009391703663
0.0009389849855
0.0009388001154
0.0009386157495
0.0009384318818
0.0009382485061
0.0009380656168
0.0009378832083
0.0009377012752
0.0009375198127
0.0009373388159
0.0009371582806
0.0009369782027
0.0009367985786
0.0009366194051
0.0009364406793
0.0009362623987
0.0009360845608
0.0009359071635
0.0009357302041
0.0009355536796
0.0009353775856
0.0009352019161
0.0009350266619
0.0009348518099
0.0009346773413
0.0009345032302
0.0009330888451
0.0009308791616
0.0009288146699
0.0009268868192
0.0009250856982
0.0009234023706
0.0009218285743
0.0009203563534
0.0009189778099
0.0009176849527
0.0009164696084
0.0009153233704
0.0009142375733
0.0009132032873
0.0009122113276
0.0009112522765
0.0009103165166
0.0009093942745
0.0009084756731
0.0009075507902
0.0009066097254
0.0009056426707
0.0009046399863
0.0009035922789
0.0009024904824
0.0009013259394
0.0009000904825
0.0008987765147
0.0008973770869
0.0008958859732
0.0008942977405
0.0008926078136
0.0008908125341
0.0008889092111
0.0008868961642
0.0008847727574
0.0008825394224
0.0008801976719
0.0008777501013
0.0008752003784
0.0008725532209
0.0008698143615
0.0008669905011
0.0008640892486
0.0008611190501
0.0008580891059
0.0008550092776
0.0008518899862
0.0008487421019
0.0008455768278
0.0008424055791
0.0008392398603
0.0008360911404
0.0008329707313
0.0008298896685
0.0008268585983
0.0008238876722
0.0008209864504
0.0008181638158
0.0008154279008
0.0008127860254
0.0008102446505
0.0008078093431
0.0008054847556
0.0008032746185
0.0008011817451
0.000799208048
0.0007973545652
0.000795621496
0.0007940082445
0.000792513469
0.0007911351367
0.0007898705815
0.0007887165651
0.0007876693378
0.0007867247008
0.0007858780675
0.000785124523
0.000784458883
0.0007838757499
0.0007833695668
0.0007829346698
0.0007825653375
0.0007822558387
0.000782000478
0.0007817936395
0.0007816298287
0.0007815037121
0.0007814101555
0.0007813442591
0.000781301391
0.0007812772171
0.000781267728
0.0007812692619
0.0007812785232
0.0007812925956
0.0007813089506
0.00078132545
0.0007813403415
0.0007813522498
0.0007813601598
0.0007813633956
0.0007813615932
0.0007813546684
0.0007813427818
0.0007813262994
0.000781305753
0.0007812817981
0.0007812551737
0.0007812266628
0.0007811970558
0.0007811671175
0.0007811375585
0.0007811090116
0.0007810820133
0.0007810569916
0.0007810342589
0.0007810140103
0.0007809963273
0.0007809811852
0.000780968465
0.0007809579675
0.00078094943
0.0007809425431
0.0007809369696
0.0007809323608
0.0007809283732
0.0007809246823
0.0007809209949
0.0007809170586
0.0007809126679
0.0007809076688
0.0007809019591
0.000780895488
0.000780888252
0.0007808802898
0.0007808716758
0.0007808625128
0.0007808529236
0.0007808430434
0.0007808330123
0.000780822968
0.0007808130401
0.0007808033454
0.0007807939836
0.0007807850359
0.0007807765628
0.0007807686047
0.0007807611826
0.0007807542998
0.0007807479442
0.0007807420913
0.0007807367065
0.0007807317489
0.0007807271732
0.000780722933
0.0007807189826
0.000780715279
0.000780711783
0.0007807084602
0.0007807052815
0.0007807022233
0.0007806992671
0.0007806963992
0.0007806936103
0.0007806908946
0.0007806882495
0.0007806856745
0.0007806831712
0.0007806807424
0.0007806783921
0.000780676125
0.0007806739463
0.0007806718621
0.0007806698787
0.0007806680031
0.0007806662425
0.0007806646048
0.0007806630982
0.0007806617308
0.000780660511
0.000780659447
0.0007806585462
0.0007806578156
0.0007806572607
0.0007806568859
0.0007806566937
0.0007806566847
0.0007806568573
0.0007806572076
0.0007806577295
0.0007806584143
0.0007806592512
0.000780660227
0.0007806613268
0.0007806625336
0.0007806638293
0.0007806651945
0.000780666609
0.000780668052
0.0007806695027
0.0007806709405
0.0007806723453
0.0007806736978
0.0007806749797
0.0007806761743
0.0007806772663
0.000780678242
0.0007806790898
0.0007806797999
0.0007806803645
0.0007806807781
0.0007806810369
0.0007806811394
0.0007806810858
0.0007806808782
0.0007806805204
0.0007806800177
0.0007806793767
0.0007806786053
0.0007806777124
0.0007806767078
0.0007806756017
0.000780674405
0.0007806731289
0.0007806717848
0.000780670384
0.0007806689378
0.0007806674574
0.0007806659535
0.0007806644366
0.0007806629167
0.0007806614034
0.0007806599055
0.0007806584314
0.0007806569889
0.000780655585
0.000780654226
0.0007806529177
0.0007806516649
0.0007806504719
0.0007806493422
0.0007806482787
0.0007806472834
0.0007806463578
0.0007806455032
0.0007806447212
0.0007806440172
0.0007806434105
0.0007806429707
)
;

boundaryField
{
    inlet
    {
        type            fixedValue;
        value           uniform 0;
    }
    outlet
    {
        type            zeroGradient;
    }
    wall
    {
        type            empty;
    }
}


// ************************************************************************* //
