/*--------------------------------*- C++ -*----------------------------------*\
  =========                 |
  \\      /  F ield         | OpenFOAM: The Open Source CFD Toolbox
   \\    /   O peration     | Website:  https://openfoam.org
    \\  /    A nd           | Version:  7
     \\/     M anipulation  |
\*---------------------------------------------------------------------------*/
FoamFile
{
    version     2.0;
    format      ascii;
    class       volScalarField;
    location    "0.000558243009";
    object      p;
}
// * * * * * * * * * * * * * * * * * * * * * * * * * * * * * * * * * * * * * //

dimensions      [1 -1 -2 0 0 0 0];

internalField   nonuniform List<scalar> 
1500
(
3006164.789
3006164.271
3006163.262
3006161.723
3006159.746
3006157.301
3006154.533
3006151.441
3006148.182
3006144.783
3006141.381
3006138.029
3006134.834
3006131.866
3006129.198
3006126.896
3006125.008
3006123.572
3006122.615
3006122.146
3006122.165
3006122.658
3006123.598
3006124.952
3006126.677
3006128.724
3006131.04
3006133.571
3006136.261
3006139.054
3006141.896
3006144.738
3006147.528
3006150.224
3006152.782
3006155.163
3006157.334
3006159.263
3006160.922
3006162.288
3006163.34
3006164.064
3006164.449
3006164.491
3006164.188
3006163.546
3006162.577
3006161.298
3006159.729
3006157.9
3006155.839
3006153.584
3006151.172
3006148.643
3006146.04
3006143.404
3006140.778
3006138.203
3006135.716
3006133.355
3006131.152
3006129.136
3006127.333
3006125.762
3006124.439
3006123.376
3006122.579
3006122.05
3006121.785
3006121.779
3006122.021
3006122.5
3006123.199
3006124.102
3006125.191
3006126.447
3006127.85
3006129.382
3006131.024
3006132.758
3006134.568
3006136.437
3006138.351
3006140.296
3006142.257
3006144.222
3006146.179
3006148.115
3006150.019
3006151.878
3006153.682
3006155.418
3006157.074
3006158.64
3006160.102
3006161.451
3006162.676
3006163.766
3006164.713
3006165.509
3006166.146
3006166.618
3006166.922
3006167.054
3006167.014
3006166.8
3006166.416
3006165.864
3006165.148
3006164.276
3006163.254
3006162.09
3006160.795
3006159.379
3006157.854
3006156.231
3006154.525
3006152.749
3006150.917
3006149.043
3006147.143
3006145.231
3006143.321
3006141.429
3006139.568
3006137.751
3006135.992
3006134.301
3006132.691
3006131.17
3006129.747
3006128.431
3006127.227
3006126.139
3006125.173
3006124.329
3006123.61
3006123.014
3006122.541
3006122.187
3006121.948
3006121.821
3006121.797
3006121.872
3006122.036
3006122.281
3006122.6
3006122.983
3006123.42
3006123.904
3006124.426
3006124.978
3006125.553
3006126.147
3006126.753
3006127.368
3006127.991
3006128.62
3006129.256
3006129.899
3006130.551
3006131.216
3006131.896
3006132.595
3006133.316
3006134.062
3006134.836
3006135.64
3006136.475
3006137.342
3006138.242
3006139.172
3006140.132
3006141.119
3006142.131
3006143.166
3006144.22
3006145.289
3006146.371
3006147.463
3006148.562
3006149.663
3006150.765
3006151.863
3006152.955
3006154.036
3006155.104
3006156.153
3006157.18
3006158.179
3006159.147
3006160.077
3006160.965
3006161.806
3006162.595
3006163.329
3006164.004
3006164.616
3006165.163
3006165.645
3006166.061
3006166.41
3006166.695
3006166.918
3006167.08
3006167.184
3006167.234
3006167.233
3006167.183
3006167.088
3006166.949
3006166.768
3006166.546
3006166.285
3006165.987
3006165.653
3006165.286
3006164.89
3006164.47
3006164.033
3006163.585
3006163.136
3006162.692
3006162.26
3006161.844
3006161.444
3006161.053
3006160.662
3006160.251
3006159.796
3006159.268
3006158.633
3006157.859
3006156.916
3006155.783
3006154.451
3006152.929
3006151.248
3006149.461
3006147.645
3006145.899
3006144.339
3006143.088
3006142.27
3006141.992
3006142.33
3006143.32
3006144.927
3006147.067
3006149.5
3006150.898
3006151.068
3006151.236
3006151.403
3006151.569
3006151.735
3006151.9
3006152.064
3006152.226
3006152.388
3006152.549
3006152.708
3006152.866
3006153.022
3006153.176
3006153.329
3006153.48
3006153.629
3006153.775
3006153.92
3006154.062
3006154.201
3006154.338
3006154.472
3006154.603
3006154.732
3006154.857
3006154.979
3006155.097
3006155.212
3006155.324
3006155.431
3006155.535
3006155.635
3006155.73
3006155.822
3006155.908
3006155.991
3006156.068
3006156.141
3006156.209
3006156.272
3006156.329
3006156.381
3006156.428
3006156.469
3006156.504
3006156.533
3006156.557
3006156.574
3006156.584
3006156.588
3006156.586
3006156.577
3006156.561
3006156.538
3006156.507
3006156.47
3006156.425
3006156.372
3006156.312
3006156.244
3006156.168
3006156.084
3006155.992
3006155.891
3006155.782
3006155.664
3006155.538
3006155.402
3006155.258
3006155.105
3006154.942
3006154.77
3006154.588
3006154.397
3006154.196
3006153.986
3006153.765
3006153.535
3006153.294
3006153.043
3006152.782
3006152.51
3006152.228
3006151.935
3006151.631
3006151.317
3006150.991
3006150.655
3006150.308
3006149.949
3006149.579
3006149.198
3006148.805
3006148.401
3006147.986
3006147.559
3006147.12
3006146.67
3006146.208
3006145.734
3006145.248
3006144.751
3006144.241
3006143.72
3006143.186
3006142.641
3006142.084
3006141.515
3006140.934
3006140.34
3006139.735
3006139.118
3006138.489
3006137.847
3006137.194
3006136.529
3006135.852
3006135.163
3006134.463
3006133.75
3006133.026
3006132.29
3006131.543
3006130.784
3006130.013
3006129.232
3006128.438
3006127.634
3006126.819
3006125.992
3006125.155
3006124.307
3006123.448
3006122.579
3006121.699
3006120.809
3006119.909
3006118.999
3006118.08
3006117.15
3006116.211
3006115.263
3006114.306
3006113.34
3006112.365
3006111.382
3006110.391
3006109.391
3006108.384
3006107.369
3006106.347
3006105.318
3006104.282
3006103.239
3006102.19
3006101.135
3006100.074
3006099.008
3006097.937
3006096.861
3006095.781
3006094.696
3006093.608
3006092.516
3006091.42
3006090.323
3006089.222
3006088.12
3006087.015
3006085.91
3006084.803
3006083.696
3006082.589
3006081.482
3006080.376
3006079.271
3006078.168
3006077.066
3006075.967
3006074.871
3006073.778
3006072.689
3006071.604
3006070.524
3006069.449
3006068.38
3006067.317
3006066.261
3006065.212
3006064.171
3006063.139
3006062.115
3006061.1
3006060.095
3006059.101
3006058.118
3006057.146
3006056.187
3006055.24
3006054.306
3006053.386
3006052.481
3006051.59
3006050.716
3006049.857
3006049.015
3006048.191
3006047.385
3006046.597
3006045.829
3006045.08
3006044.352
3006043.645
3006042.96
3006042.297
3006041.658
3006041.042
3006040.45
3006039.883
3006039.342
3006038.827
3006038.339
3006037.879
3006037.447
3006037.043
3006036.67
3006036.326
3006036.013
3006035.732
3006035.482
3006035.266
3006035.083
3006034.934
3006034.819
3006034.741
3006034.698
3006034.691
3006034.723
3006034.792
3006034.899
3006035.046
3006035.233
3006035.46
3006035.728
3006036.038
3006036.391
3006036.786
3006037.225
3006037.708
3006038.236
3006038.809
3006039.428
3006040.094
3006040.806
3006041.567
3006042.375
3006043.233
3006044.139
3006045.096
3006046.103
3006047.161
3006048.269
3006049.427
3006050.633
3006051.886
3006053.186
3006054.534
3006055.928
3006057.369
3006058.857
3006060.391
3006061.973
3006063.602
3006065.279
3006067.003
3006068.776
3006070.597
3006072.469
3006074.392
3006076.368
3006078.4
3006080.488
3006082.634
3006084.838
3006087.1
3006089.42
3006091.797
3006094.233
3006096.726
3006099.277
3006101.885
3006104.551
3006107.275
3006110.056
3006112.894
3006115.789
3006118.74
3006121.748
3006124.813
3006127.933
3006131.109
3006134.34
3006137.627
3006140.967
3006144.362
3006147.811
3006151.313
3006154.868
3006158.475
3006162.134
3006165.843
3006169.604
3006173.414
3006177.273
3006181.181
3006185.136
3006189.139
3006193.188
3006197.282
3006201.421
3006205.603
3006209.828
3006214.095
3006218.402
3006222.75
3006227.136
3006231.559
3006236.02
3006240.515
3006245.045
3006249.607
3006254.201
3006258.826
3006263.48
3006268.161
3006272.869
3006277.601
3006282.357
3006287.135
3006291.933
3006296.751
3006301.585
3006306.435
3006311.298
3006316.174
3006321.06
3006325.955
3006330.857
3006335.764
3006340.674
3006345.585
3006350.495
3006355.402
3006360.305
3006365.201
3006370.087
3006374.963
3006379.825
3006384.672
3006389.502
3006394.311
3006399.098
3006403.861
3006408.596
3006413.302
3006417.977
3006422.617
3006427.221
3006431.785
3006436.307
3006440.785
3006445.217
3006449.598
3006453.927
3006458.201
3006462.417
3006466.572
3006470.664
3006474.689
3006478.646
3006482.53
3006486.339
3006490.07
3006493.72
3006497.286
3006500.764
3006504.152
3006507.447
3006510.644
3006513.741
3006516.735
3006519.621
3006522.397
3006525.059
3006527.603
3006530.026
3006532.324
3006534.493
3006536.528
3006538.427
3006540.184
3006541.796
3006543.257
3006544.564
3006545.711
3006546.693
3006547.506
3006548.143
3006548.599
3006548.869
3006548.946
3006548.823
3006548.495
3006547.954
3006547.193
3006546.205
3006544.981
3006543.515
3006541.799
3006539.823
3006537.58
3006535.062
3006532.261
3006529.17
3006525.78
3006522.085
3006518.08
3006513.758
3006509.117
3006504.152
3006498.862
3006493.247
3006487.308
3006481.049
3006474.475
3006467.593
3006460.412
3006452.943
3006445.198
3006437.192
3006428.941
3006420.465
3006411.781
3006402.911
3006393.878
3006384.703
3006375.411
3006366.032
3006356.583
3006347.086
3006337.571
3006328.09
3006318.668
3006309.318
3006300.071
3006290.967
3006282.006
3006273.215
3006264.65
3006256.327
3006248.27
3006240.52
3006233.122
3006225.99
3006219.248
3006212.916
3006207.01
3006201.47
3006196.386
3006191.789
3006187.736
3006184.062
3006180.879
3006178.194
3006175.991
3006174.266
3006173.018
3006172.24
3006171.873
3006171.932
3006172.395
3006173.251
3006174.482
3006176.066
3006178
3006180.274
3006182.842
3006185.68
3006188.777
3006192.115
3006195.674
3006199.438
3006203.393
3006207.526
3006211.814
3006216.253
3006220.848
3006225.584
3006230.445
3006235.426
3006240.522
3006245.728
3006251.037
3006256.445
3006261.949
3006267.542
3006273.221
3006278.983
3006284.824
3006290.741
3006296.73
3006302.789
3006308.915
3006315.104
3006321.355
3006327.665
3006334.031
3006340.45
3006346.921
3006353.442
3006360.009
3006366.622
3006373.277
3006379.972
3006386.706
3006393.477
3006400.282
3006407.119
3006413.988
3006420.884
3006427.808
3006434.757
3006441.729
3006448.722
3006455.734
3006462.764
3006469.811
3006476.871
3006483.944
3006491.027
3006498.119
3006505.219
3006512.325
3006519.434
3006526.545
3006533.658
3006540.769
3006547.877
3006554.982
3006562.08
3006569.171
3006576.254
3006583.325
3006590.385
3006597.431
3006604.462
3006611.476
3006618.472
3006625.448
3006632.403
3006639.336
3006646.244
3006653.127
3006659.983
3006666.811
3006673.609
3006680.376
3006687.11
3006693.811
3006700.476
3006707.105
3006713.695
3006720.247
3006726.758
3006733.228
3006739.654
3006746.036
3006752.373
3006758.662
3006764.904
3006771.097
3006777.239
3006783.33
3006789.368
3006795.353
3006801.282
3006807.156
3006812.972
3006818.731
3006824.43
3006830.069
3006835.646
3006841.162
3006846.614
3006852.001
3006857.324
3006862.58
3006867.77
3006872.891
3006877.943
3006882.926
3006887.838
3006892.678
3006897.447
3006902.142
3006906.763
3006911.309
3006915.78
3006920.175
3006924.492
3006928.732
3006932.894
3006936.976
3006940.979
3006944.901
3006948.742
3006952.502
3006956.179
3006959.773
3006963.284
3006966.711
3006970.053
3006973.31
3006976.482
3006979.567
3006982.566
3006985.477
3006988.302
3006991.038
3006993.686
3006996.245
3006998.714
3007001.095
3007003.385
3007005.585
3007007.694
3007009.712
3007011.639
3007013.475
3007015.219
3007016.87
3007018.429
3007019.895
3007021.269
3007022.549
3007023.737
3007024.83
3007025.83
3007026.737
3007027.549
3007028.267
3007028.891
3007029.42
3007029.856
3007030.196
3007030.442
3007030.593
3007030.65
3007030.611
3007030.478
3007030.25
3007029.927
3007029.51
3007028.997
3007028.39
3007027.688
3007026.891
3007025.999
3007025.013
3007023.932
3007022.756
3007021.487
3007020.123
3007018.665
3007017.113
3007015.466
3007013.727
3007011.893
3007009.966
3007007.946
3007005.833
3007003.627
3007001.328
3006998.936
3006996.453
3006993.877
3006991.209
3006988.45
3006985.6
3006982.658
3006979.626
3006976.502
3006973.289
3006969.986
3006966.593
3006963.111
3006959.539
3006955.879
3006952.13
3006948.294
3006944.369
3006940.357
3006936.258
3006932.072
3006927.801
3006923.443
3006918.999
3006914.47
3006909.857
3006905.159
3006900.377
3006895.512
3006890.563
3006885.532
3006880.418
3006875.223
3006869.946
3006864.589
3006859.151
3006853.632
3006848.035
3006842.358
3006836.603
3006830.769
3006824.858
3006818.87
3006812.806
3006806.665
3006800.449
3006794.157
3006787.791
3006781.352
3006774.838
3006768.252
3006761.594
3006754.864
3006748.062
3006741.19
3006734.248
3006727.236
3006720.156
3006713.007
3006705.791
3006698.507
3006691.157
3006683.741
3006676.259
3006668.713
3006661.103
3006653.429
3006645.693
3006637.894
3006630.034
3006622.114
3006614.132
3006606.092
3006597.992
3006589.835
3006581.62
3006573.347
3006565.019
3006556.636
3006548.197
3006539.705
3006531.159
3006522.56
3006513.909
3006505.208
3006496.455
3006487.653
3006478.802
3006469.903
3006460.956
3006451.962
3006442.922
3006433.837
3006424.707
3006415.533
3006406.317
3006397.058
3006387.757
3006378.416
3006369.035
3006359.615
3006350.157
3006340.661
3006331.128
3006321.56
3006311.956
3006302.318
3006292.647
3006282.943
3006273.207
3006263.441
3006253.644
3006243.818
3006233.963
3006224.081
3006214.173
3006204.238
3006194.278
3006184.295
3006174.288
3006164.258
3006154.207
3006144.136
3006134.045
3006123.934
3006113.806
3006103.661
3006093.5
3006083.324
3006073.133
3006062.929
3006052.712
3006042.483
3006032.244
3006021.995
3006011.738
3006001.472
3005991.2
3005980.921
3005970.637
3005960.349
3005950.058
3005939.765
3005929.47
3005919.175
3005908.88
3005898.587
3005888.297
3005878.009
3005867.727
3005857.449
3005847.178
3005836.914
3005826.658
3005816.412
3005806.175
3005795.95
3005785.737
3005775.537
3005765.351
3005755.18
3005745.025
3005734.886
3005724.766
3005714.665
3005704.583
3005694.522
3005684.483
3005674.467
3005664.475
3005654.507
3005644.564
3005634.649
3005624.761
3005614.901
3005605.071
3005595.271
3005585.503
3005575.767
3005566.064
3005556.396
3005546.762
3005537.165
3005527.605
3005518.083
3005508.6
3005499.156
3005489.753
3005480.392
3005471.074
3005461.799
3005452.568
3005443.383
3005434.244
3005425.152
3005416.107
3005407.112
3005398.166
3005389.271
3005380.427
3005371.635
3005362.897
3005354.212
3005345.582
3005337.008
3005328.49
3005320.029
3005311.626
3005303.281
3005294.997
3005286.772
3005278.608
3005270.506
3005262.467
3005254.491
3005246.578
3005238.731
3005230.948
3005223.232
3005215.582
3005207.999
3005200.485
3005193.039
3005185.662
3005178.355
3005171.118
3005163.952
3005156.858
3005149.836
3005142.886
3005136.009
3005129.206
3005122.478
3005115.823
3005109.244
3005102.74
3005096.313
3005089.961
3005083.687
3005077.489
3005071.369
3005065.327
3005059.363
3005053.477
3005047.67
3005041.943
3005036.294
3005030.725
3005025.236
3005019.827
3005014.499
3005009.25
3005004.082
3004998.995
3004993.989
3004989.064
3004984.219
3004979.456
3004974.773
3004970.172
3004965.652
3004961.213
3004956.855
3004952.579
3004948.383
3004944.268
3004940.234
3004936.28
3004932.407
3004928.615
3004924.903
3004921.27
3004917.718
3004914.245
3004910.851
3004907.537
3004904.301
3004901.144
3004898.065
3004895.064
3004892.14
3004889.293
3004886.523
3004883.83
3004881.212
3004878.67
3004876.204
3004873.811
3004871.494
3004869.249
3004867.078
3004864.98
3004862.954
3004861
3004859.117
3004857.305
3004855.563
3004853.89
3004852.287
3004850.752
3004849.285
3004847.885
3004846.553
3004845.286
3004844.086
3004842.948
3004841.883
3004840.856
3004839.965
3004838.983
3004838.278
3004837.551
3004836.708
3004835.971
3004838.168
3004890.826
3005048.076
3005202.411
3005354.153
3005502.172
3005644.911
3005781.204
3005910.022
3006030.485
3006141.871
3006243.615
3006335.301
3006416.656
3006487.549
3006547.979
3006598.068
3006638.051
3006668.268
3006689.154
3006701.223
3006705.063
3006701.32
3006690.687
3006673.895
3006651.698
3006624.864
3006594.163
3006560.359
3006524.198
3006486.4
3006447.652
3006408.6
3006369.843
3006331.928
3006295.347
3006260.531
3006227.852
3006197.617
3006170.073
3006145.405
3006123.736
3006105.134
3006089.612
3006077.131
3006067.609
3006060.92
3006056.902
3006055.365
3006056.091
3006058.843
3006063.371
3006069.415
3006076.714
3006085.006
3006094.036
3006103.559
3006113.345
3006123.179
3006132.867
3006142.236
3006151.136
3006159.441
3006167.049
3006173.883
3006179.888
3006185.033
3006189.308
3006192.723
3006195.304
3006197.092
3006198.144
3006198.524
3006198.306
3006197.568
3006196.393
3006194.865
3006193.064
3006191.071
3006188.96
3006186.8
3006184.653
3006182.573
3006180.605
3006178.788
3006177.149
3006175.708
3006174.478
3006173.463
3006172.66
3006172.061
3006171.653
3006171.418
3006171.336
3006171.384
3006171.538
3006171.774
3006172.068
3006172.397
3006172.74
3006173.078
3006173.395
3006173.678
3006173.914
3006174.097
3006174.22
3006174.282
3006174.281
3006174.22
3006174.102
3006173.931
3006173.713
3006173.455
3006173.164
3006172.845
3006172.506
3006172.152
3006171.789
3006171.422
3006171.054
3006170.687
3006170.325
3006169.968
3006169.616
3006169.268
3006168.925
3006168.583
3006168.243
3006167.9
3006167.554
3006167.203
3006166.844
3006166.475
3006166.095
3006165.703
3006165.298
3006164.88
3006164.448
3006164.003
3006163.544
3006163.074
3006162.592
3006162.1
3006161.6
3006161.092
3006160.58
3006160.063
3006159.544
3006159.025
3006158.507
3006157.992
3006157.481
3006156.976
3006156.478
3006155.989
3006155.51
3006155.041
3006154.585
3006154.142
3006153.714
3006153.3
3006152.903
3006152.523
3006152.16
3006151.816
3006151.492
3006151.187
3006150.903
3006150.639
3006150.397
3006150.177
3006149.979
3006149.803
3006149.65
3006149.519
3006149.41
3006149.323
3006149.258
3006149.214
3006149.191
3006149.188
3006149.205
3006149.239
3006149.291
3006149.36
3006149.444
3006149.541
3006149.652
3006149.774
3006149.906
3006150.047
3006150.195
3006150.349
3006150.509
3006150.672
3006150.839
3006151.007
3006151.176
3006151.346
3006151.515
3006151.683
3006151.851
3006152.018
3006152.184
3006152.35
3006152.515
3006152.681
3006152.849
3006153.018
3006153.192
3006153.37
3006153.554
3006153.745
3006153.946
3006154.157
3006154.381
3006154.618
3006154.871
3006155.141
3006155.429
3006155.736
3006156.064
3006156.413
3006156.785
3006157.179
3006157.596
3006158.035
3006158.496
3006158.979
3006159.482
3006160.004
3006160.544
3006161.098
3006161.666
3006162.245
3006162.831
3006163.422
3006164.015
3006164.607
3006165.193
3006165.771
3006166.337
3006166.887
3006167.418
3006167.926
3006168.407
3006168.859
3006169.278
3006169.66
3006170.003
3006170.304
)
;

boundaryField
{
    inlet
    {
        type            zeroGradient;
    }
    outlet
    {
        type            waveTransmissive;
        gamma           1.4;
        value           uniform 3006170.422;
    }
    wall
    {
        type            empty;
    }
}


// ************************************************************************* //
