/*--------------------------------*- C++ -*----------------------------------*\
  =========                 |
  \\      /  F ield         | OpenFOAM: The Open Source CFD Toolbox
   \\    /   O peration     | Website:  https://openfoam.org
    \\  /    A nd           | Version:  7
     \\/     M anipulation  |
\*---------------------------------------------------------------------------*/
FoamFile
{
    version     2.0;
    format      ascii;
    class       volScalarField;
    location    "0.000558243009";
    object      p_0;
}
// * * * * * * * * * * * * * * * * * * * * * * * * * * * * * * * * * * * * * //

dimensions      [1 -1 -2 0 0 0 0];

internalField   nonuniform List<scalar> 
1500
(
3006160.612
3006160.22
3006159.46
3006158.288
3006156.787
3006154.908
3006152.775
3006150.363
3006147.802
3006145.096
3006142.362
3006139.635
3006137.006
3006134.533
3006132.281
3006130.306
3006128.655
3006127.364
3006126.457
3006125.95
3006125.842
3006126.126
3006126.781
3006127.78
3006129.088
3006130.664
3006132.465
3006134.446
3006136.561
3006138.766
3006141.018
3006143.278
3006145.508
3006147.677
3006149.752
3006151.708
3006153.518
3006155.161
3006156.615
3006157.863
3006158.889
3006159.677
3006160.216
3006160.497
3006160.515
3006160.267
3006159.756
3006158.986
3006157.97
3006156.721
3006155.259
3006153.607
3006151.791
3006149.843
3006147.792
3006145.674
3006143.522
3006141.37
3006139.253
3006137.203
3006135.25
3006133.423
3006131.745
3006130.239
3006128.922
3006127.808
3006126.907
3006126.224
3006125.76
3006125.515
3006125.482
3006125.654
3006126.019
3006126.564
3006127.275
3006128.136
3006129.131
3006130.244
3006131.459
3006132.761
3006134.135
3006135.568
3006137.049
3006138.565
3006140.107
3006141.666
3006143.233
3006144.8
3006146.359
3006147.903
3006149.424
3006150.914
3006152.366
3006153.77
3006155.118
3006156.401
3006157.61
3006158.736
3006159.769
3006160.702
3006161.525
3006162.231
3006162.813
3006163.264
3006163.581
3006163.76
3006163.797
3006163.691
3006163.443
3006163.054
3006162.527
3006161.865
3006161.073
3006160.158
3006159.126
3006157.986
3006156.746
3006155.416
3006154.006
3006152.528
3006150.993
3006149.414
3006147.801
3006146.169
3006144.529
3006142.894
3006141.276
3006139.688
3006138.139
3006136.642
3006135.205
3006133.839
3006132.551
3006131.349
3006130.239
3006129.226
3006128.314
3006127.505
3006126.802
3006126.206
3006125.715
3006125.328
3006125.043
3006124.855
3006124.76
3006124.752
3006124.825
3006124.972
3006125.184
3006125.455
3006125.775
3006126.136
3006126.531
3006126.951
3006127.39
3006127.841
3006128.299
3006128.761
3006129.223
3006129.683
3006130.142
3006130.6
3006131.058
3006131.521
3006131.991
3006132.472
3006132.968
3006133.484
3006134.024
3006134.591
3006135.187
3006135.816
3006136.479
3006137.177
3006137.909
3006138.674
3006139.472
3006140.3
3006141.157
3006142.039
3006142.944
3006143.87
3006144.814
3006145.773
3006146.745
3006147.728
3006148.718
3006149.713
3006150.711
3006151.707
3006152.698
3006153.68
3006154.648
3006155.599
3006156.526
3006157.426
3006158.291
3006159.118
3006159.902
3006160.638
3006161.322
3006161.951
3006162.523
3006163.036
3006163.49
3006163.885
3006164.222
3006164.503
3006164.731
3006164.91
3006165.041
3006165.127
3006165.172
3006165.176
3006165.141
3006165.067
3006164.953
3006164.8
3006164.606
3006164.371
3006164.099
3006163.793
3006163.459
3006163.108
3006162.749
3006162.399
3006162.07
3006161.778
3006161.533
3006161.342
3006161.204
3006161.109
3006161.034
3006160.946
3006160.801
3006160.546
3006160.12
3006159.463
3006158.522
3006157.256
3006155.646
3006153.702
3006151.472
3006149.041
3006146.538
3006144.129
3006142.016
3006140.411
3006139.551
3006139.603
3006140.255
3006140.339
3006140.426
3006140.518
3006140.614
3006140.717
3006140.824
3006140.936
3006141.054
3006141.176
3006141.304
3006141.437
3006141.576
3006141.72
3006141.869
3006142.023
3006142.183
3006142.348
3006142.518
3006142.694
3006142.875
3006143.061
3006143.252
3006143.449
3006143.652
3006143.859
3006144.072
3006144.29
3006144.513
3006144.742
3006144.975
3006145.214
3006145.458
3006145.707
3006145.961
3006146.221
3006146.485
3006146.754
3006147.028
3006147.307
3006147.591
3006147.88
3006148.173
3006148.471
3006148.774
3006149.081
3006149.393
3006149.709
3006150.03
3006150.354
3006150.683
3006151.016
3006151.354
3006151.695
3006152.04
3006152.388
3006152.74
3006153.096
3006153.456
3006153.818
3006154.184
3006154.554
3006154.926
3006155.301
3006155.679
3006156.059
3006156.442
3006156.828
3006157.216
3006157.606
3006157.998
3006158.391
3006158.787
3006159.184
3006159.582
3006159.982
3006160.383
3006160.785
3006161.188
3006161.591
3006161.994
3006162.398
3006162.802
3006163.206
3006163.61
3006164.013
3006164.416
3006164.817
3006165.218
3006165.617
3006166.015
3006166.412
3006166.806
3006167.199
3006167.589
3006167.977
3006168.362
3006168.744
3006169.122
3006169.498
3006169.87
3006170.238
3006170.602
3006170.962
3006171.317
3006171.667
3006172.012
3006172.352
3006172.687
3006173.016
3006173.338
3006173.655
3006173.965
3006174.268
3006174.564
3006174.853
3006175.134
3006175.407
3006175.672
3006175.929
3006176.177
3006176.417
3006176.647
3006176.867
3006177.078
3006177.279
3006177.47
3006177.65
3006177.819
3006177.977
3006178.124
3006178.259
3006178.382
3006178.493
3006178.591
3006178.677
3006178.75
3006178.809
3006178.854
3006178.886
3006178.904
3006178.907
3006178.895
3006178.869
3006178.827
3006178.769
3006178.696
3006178.607
3006178.501
3006178.379
3006178.24
3006178.084
3006177.91
3006177.719
3006177.51
3006177.282
3006177.037
3006176.772
3006176.489
3006176.187
3006175.865
3006175.524
3006175.162
3006174.781
3006174.38
3006173.958
3006173.515
3006173.051
3006172.566
3006172.06
3006171.533
3006170.983
3006170.412
3006169.819
3006169.203
3006168.565
3006167.904
3006167.221
3006166.515
3006165.785
3006165.033
3006164.257
3006163.458
3006162.635
3006161.788
3006160.918
3006160.024
3006159.106
3006158.164
3006157.197
3006156.207
3006155.192
3006154.153
3006153.089
3006152.002
3006150.89
3006149.753
3006148.592
3006147.407
3006146.197
3006144.962
3006143.704
3006142.421
3006141.114
3006139.783
3006138.427
3006137.048
3006135.644
3006134.217
3006132.766
3006131.292
3006129.794
3006128.272
3006126.728
3006125.161
3006123.57
3006121.958
3006120.322
3006118.665
3006116.986
3006115.285
3006113.562
3006111.819
3006110.054
3006108.269
3006106.464
3006104.638
3006102.793
3006100.929
3006099.045
3006097.144
3006095.224
3006093.286
3006091.33
3006089.358
3006087.37
3006085.365
3006083.344
3006081.309
3006079.259
3006077.194
3006075.116
3006073.025
3006070.922
3006068.806
3006066.679
3006064.541
3006062.393
3006060.235
3006058.068
3006055.892
3006053.709
3006051.519
3006049.323
3006047.12
3006044.913
3006042.701
3006040.486
3006038.268
3006036.048
3006033.826
3006031.604
3006029.381
3006027.16
3006024.942
3006022.728
3006020.52
3006018.317
3006016.12
3006013.929
3006011.745
3006009.568
3006007.4
3006005.241
3006003.093
3006000.958
3005998.838
3005996.734
3005994.65
3005992.586
3005990.542
3005988.518
3005986.515
3005984.533
3005982.574
3005980.638
3005978.728
3005976.844
3005974.987
3005973.159
3005971.362
3005969.596
3005967.862
3005966.162
3005964.498
3005962.87
3005961.281
3005959.73
3005958.22
3005956.752
3005955.327
3005953.946
3005952.612
3005951.324
3005950.085
3005948.896
3005947.758
3005946.673
3005945.642
3005944.666
3005943.746
3005942.885
3005942.083
3005941.341
3005940.662
3005940.046
3005939.494
3005939.009
3005938.591
3005938.242
3005937.963
3005937.755
3005937.62
3005937.559
3005937.573
3005937.664
3005937.833
3005938.081
3005938.409
3005938.819
3005939.312
3005939.889
3005940.552
3005941.301
3005942.138
3005943.064
3005944.081
3005945.188
3005946.389
3005947.683
3005949.071
3005950.556
3005952.137
3005953.817
3005955.595
3005957.474
3005959.454
3005961.535
3005963.72
3005966.008
3005968.402
3005970.901
3005973.506
3005976.219
3005979.04
3005981.97
3005985.01
3005988.16
3005991.422
3005994.795
3005998.28
3006001.879
3006005.591
3006009.417
3006013.357
3006017.413
3006021.584
3006025.87
3006030.273
3006034.793
3006039.429
3006044.182
3006049.053
3006054.04
3006059.145
3006064.368
3006069.708
3006075.166
3006080.741
3006086.433
3006092.243
3006098.17
3006104.213
3006110.373
3006116.649
3006123.041
3006129.548
3006136.169
3006142.905
3006149.755
3006156.718
3006163.793
3006170.979
3006178.276
3006185.682
3006193.198
3006200.821
3006208.55
3006216.385
3006224.324
3006232.365
3006240.507
3006248.749
3006257.088
3006265.523
3006274.051
3006282.671
3006291.379
3006300.174
3006309.052
3006318.01
3006327.044
3006336.151
3006345.326
3006354.565
3006363.862
3006373.212
3006382.608
3006392.043
3006401.509
3006410.998
3006420.501
3006430.006
3006439.502
3006448.977
3006458.417
3006467.808
3006477.133
3006486.376
3006495.518
3006504.54
3006513.422
3006522.142
3006530.68
3006539.012
3006547.115
3006554.968
3006562.545
3006569.825
3006576.785
3006583.402
3006589.655
3006595.524
3006600.99
3006606.032
3006610.635
3006614.783
3006618.459
3006621.649
3006624.344
3006626.521
3006628.157
3006629.234
3006629.82
3006629.882
3006629.398
3006628.368
3006626.794
3006624.654
3006621.95
3006618.698
3006614.887
3006610.531
3006605.608
3006600.022
3006593.964
3006587.407
3006580.287
3006572.543
3006564.309
3006555.576
3006546.284
3006536.38
3006526.045
3006515.233
3006503.931
3006492.162
3006479.954
3006467.323
3006454.279
3006440.902
3006427.207
3006413.228
3006399.002
3006384.556
3006369.916
3006355.107
3006340.142
3006325.022
3006309.779
3006294.432
3006278.994
3006263.478
3006247.9
3006232.266
3006216.581
3006200.844
3006185.044
3006169.207
3006153.344
3006137.445
3006121.519
3006105.571
3006089.606
3006073.629
3006057.642
3006041.651
3006025.659
3006009.668
3005993.683
3005977.706
3005961.74
3005945.788
3005929.852
3005913.936
3005898.04
3005882.168
3005866.322
3005850.504
3005834.716
3005818.96
3005803.239
3005787.553
3005771.906
3005756.298
3005740.731
3005725.208
3005709.729
3005694.297
3005678.913
3005663.578
3005648.294
3005633.062
3005617.884
3005602.761
3005587.695
3005572.686
3005557.735
3005542.845
3005528.016
3005513.249
3005498.545
3005483.906
3005469.332
3005454.824
3005440.384
3005426.012
3005411.71
3005397.477
3005383.316
3005369.226
3005355.209
3005341.265
3005327.395
3005313.6
3005299.88
3005286.237
3005272.67
3005259.181
3005245.77
3005232.437
3005219.184
3005206.011
3005192.917
3005179.905
3005166.974
3005154.124
3005141.357
3005128.673
3005116.071
3005103.553
3005091.118
3005078.768
3005066.502
3005054.322
3005042.226
3005030.216
3005018.292
3005006.453
3004994.701
3004983.036
3004971.457
3004959.966
3004948.562
3004937.245
3004926.016
3004914.874
3004903.821
3004892.856
3004881.979
3004871.191
3004860.491
3004849.881
3004839.359
3004828.925
3004818.581
3004808.327
3004798.161
3004788.085
3004778.098
3004768.2
3004758.392
3004748.674
3004739.045
3004729.506
3004720.057
3004710.697
3004701.428
3004692.248
3004683.157
3004674.157
3004665.246
3004656.426
3004647.695
3004639.054
3004630.502
3004622.041
3004613.669
3004605.388
3004597.196
3004589.094
3004581.081
3004573.159
3004565.326
3004557.582
3004549.929
3004542.365
3004534.891
3004527.506
3004520.211
3004513.006
3004505.89
3004498.863
3004491.926
3004485.079
3004478.321
3004471.652
3004465.072
3004458.582
3004452.181
3004445.87
3004439.647
3004433.514
3004427.47
3004421.515
3004415.649
3004409.872
3004404.185
3004398.586
3004393.077
3004387.656
3004382.324
3004377.082
3004371.928
3004366.863
3004361.887
3004357
3004352.201
3004347.492
3004342.871
3004338.34
3004333.897
3004329.542
3004325.277
3004321.101
3004317.013
3004313.014
3004309.103
3004305.282
3004301.549
3004297.905
3004294.35
3004290.884
3004287.506
3004284.217
3004281.017
3004277.906
3004274.884
3004271.95
3004269.106
3004266.35
3004263.683
3004261.105
3004258.616
3004256.216
3004253.904
3004251.682
3004249.549
3004247.505
3004245.549
3004243.683
3004241.906
3004240.218
3004238.619
3004237.109
3004235.689
3004234.357
3004233.115
3004231.962
3004230.899
3004229.924
3004229.04
3004228.244
3004227.538
3004226.921
3004226.394
3004225.956
3004225.608
3004225.349
3004225.18
3004225.101
3004225.111
3004225.211
3004225.4
3004225.679
3004226.048
3004226.507
3004227.056
3004227.694
3004228.422
3004229.24
3004230.148
3004231.146
3004232.234
3004233.412
3004234.68
3004236.038
3004237.486
3004239.024
3004240.652
3004242.37
3004244.178
3004246.076
3004248.064
3004250.143
3004252.311
3004254.57
3004256.919
3004259.357
3004261.886
3004264.506
3004267.215
3004270.014
3004272.903
3004275.883
3004278.953
3004282.112
3004285.362
3004288.702
3004292.131
3004295.651
3004299.26
3004302.96
3004306.749
3004310.629
3004314.598
3004318.657
3004322.805
3004327.043
3004331.371
3004335.789
3004340.296
3004344.892
3004349.578
3004354.353
3004359.218
3004364.171
3004369.214
3004374.346
3004379.567
3004384.876
3004390.275
3004395.762
3004401.338
3004407.002
3004412.755
3004418.596
3004424.525
3004430.542
3004436.647
3004442.84
3004449.121
3004455.489
3004461.945
3004468.488
3004475.118
3004481.836
3004488.64
3004495.53
3004502.507
3004509.571
3004516.721
3004523.957
3004531.278
3004538.686
3004546.178
3004553.756
3004561.419
3004569.167
3004577
3004584.917
3004592.918
3004601.003
3004609.172
3004617.425
3004625.76
3004634.179
3004642.681
3004651.265
3004659.931
3004668.679
3004677.509
3004686.42
3004695.413
3004704.486
3004713.64
3004722.874
3004732.188
3004741.582
3004751.055
3004760.607
3004770.237
3004779.946
3004789.732
3004799.597
3004809.538
3004819.556
3004829.651
3004839.822
3004850.068
3004860.39
3004870.786
3004881.257
3004891.802
3004902.421
3004913.113
3004923.877
3004934.714
3004945.623
3004956.603
3004967.654
3004978.776
3004989.967
3005001.228
3005012.558
3005023.956
3005035.422
3005046.956
3005058.556
3005070.223
3005081.956
3005093.754
3005105.616
3005117.543
3005129.533
3005141.586
3005153.701
3005165.879
3005178.117
3005190.415
3005202.774
3005215.192
3005227.668
3005240.202
3005252.794
3005265.442
3005278.145
3005290.904
3005303.718
3005316.585
3005329.505
3005342.478
3005355.502
3005368.577
3005381.702
3005394.877
3005408.099
3005421.37
3005434.687
3005448.051
3005461.46
3005474.913
3005488.41
3005501.95
3005515.532
3005529.155
3005542.818
3005556.52
3005570.261
3005584.04
3005597.855
3005611.706
3005625.591
3005639.51
3005653.463
3005667.447
3005681.462
3005695.507
3005709.581
3005723.683
3005737.813
3005751.968
3005766.148
3005780.352
3005794.578
3005808.827
3005823.096
3005837.385
3005851.693
3005866.018
3005880.359
3005894.716
3005909.087
3005923.471
3005937.867
3005952.273
3005966.689
3005981.113
3005995.545
3006009.983
3006024.425
3006038.872
3006053.32
3006067.77
3006082.22
3006096.668
3006111.114
3006125.557
3006139.994
3006154.425
3006168.849
3006183.263
3006197.668
3006212.061
3006226.441
3006240.807
3006255.158
3006269.492
3006283.809
3006298.105
3006312.381
3006326.635
3006340.866
3006355.072
3006369.251
3006383.403
3006397.526
3006411.619
3006425.68
3006439.707
3006453.701
3006467.658
3006481.578
3006495.459
3006509.3
3006523.099
3006536.855
3006550.567
3006564.233
3006577.852
3006591.421
3006604.941
3006618.409
3006631.823
3006645.183
3006658.487
3006671.734
3006684.921
3006698.048
3006711.114
3006724.116
3006737.053
3006749.924
3006762.728
3006775.462
3006788.126
3006800.718
3006813.236
3006825.68
3006838.047
3006850.337
3006862.547
3006874.677
3006886.725
3006898.69
3006910.569
3006922.363
3006934.069
3006945.686
3006957.212
3006968.647
3006979.993
3006991.221
3007002.423
3007013.408
3007024.394
3007035.239
3007046.055
3007056.449
3007064.187
3007108.616
3007185.633
3007241.451
3007281.364
3007305.072
3007313.785
3007308.643
3007290.827
3007261.564
3007222.113
3007173.748
3007117.75
3007055.39
3006987.919
3006916.555
3006842.471
3006766.789
3006690.565
3006614.786
3006540.362
3006468.116
3006398.787
3006333.022
3006271.372
3006214.299
3006162.166
3006115.248
3006073.728
3006037.705
3006007.194
3005982.136
3005962.399
3005947.79
3005938.057
3005932.9
3005931.975
3005934.908
3005941.294
3005950.714
3005962.736
3005976.923
3005992.844
3006010.077
3006028.213
3006046.867
3006065.677
3006084.311
3006102.469
3006119.886
3006136.333
3006151.619
3006165.591
3006178.131
3006189.162
3006198.636
3006206.544
3006212.901
3006217.754
3006221.173
3006223.248
3006224.086
3006223.81
3006222.55
3006220.445
3006217.636
3006214.265
3006210.47
3006206.384
3006202.132
3006197.83
3006193.581
3006189.476
3006185.595
3006182
3006178.743
3006175.859
3006173.371
3006171.29
3006169.616
3006168.337
3006167.434
3006166.878
3006166.637
3006166.673
3006166.945
3006167.41
3006168.026
3006168.75
3006169.543
3006170.368
3006171.19
3006171.982
3006172.717
3006173.376
3006173.943
3006174.407
3006174.762
3006175.005
3006175.139
3006175.167
3006175.097
3006174.938
3006174.701
3006174.398
3006174.04
3006173.64
3006173.209
3006172.759
3006172.299
3006171.837
3006171.381
3006170.936
3006170.505
3006170.093
3006169.698
3006169.322
3006168.963
3006168.619
3006168.287
3006167.964
3006167.646
3006167.33
3006167.012
3006166.689
3006166.357
3006166.014
3006165.658
3006165.288
3006164.901
3006164.499
3006164.079
3006163.644
3006163.193
3006162.728
3006162.251
3006161.762
3006161.264
3006160.759
3006160.249
3006159.735
3006159.22
3006158.705
3006158.192
3006157.683
3006157.179
3006156.682
3006156.193
3006155.714
3006155.245
3006154.788
3006154.343
3006153.911
3006153.494
3006153.092
3006152.706
3006152.336
3006151.984
3006151.649
3006151.333
3006151.035
3006150.757
3006150.499
3006150.261
3006150.044
3006149.848
3006149.672
3006149.518
3006149.386
3006149.274
3006149.184
3006149.114
3006149.065
3006149.036
3006149.027
3006149.036
3006149.064
3006149.109
3006149.17
3006149.246
3006149.336
3006149.44
3006149.555
3006149.68
3006149.815
3006149.957
3006150.107
3006150.261
3006150.42
3006150.582
3006150.746
3006150.911
3006151.076
3006151.242
3006151.406
3006151.569
3006151.73
3006151.89
3006152.048
3006152.205
3006152.361
3006152.517
3006152.673
3006152.83
3006152.99
3006153.154
3006153.322
3006153.497
3006153.68
3006153.871
3006154.074
3006154.29
3006154.52
3006154.765
3006155.028
3006155.309
3006155.611
3006155.933
3006156.277
3006156.643
3006157.032
3006157.445
3006157.88
3006158.338
3006158.817
3006159.318
3006159.838
3006160.377
3006160.931
3006161.499
3006162.08
3006162.669
3006163.264
3006163.863
3006164.461
3006165.056
3006165.645
3006166.223
3006166.787
3006167.334
3006167.859
3006168.36
3006168.833
3006169.275
3006169.682
3006170.052
3006170.381
3006170.668
3006170.909
3006171.104
3006171.251
)
;

boundaryField
{
    inlet
    {
        type            zeroGradient;
    }
    outlet
    {
        type            waveTransmissive;
        gamma           1.4;
        value           uniform 3006171.291;
    }
    wall
    {
        type            empty;
    }
}


// ************************************************************************* //
