/*--------------------------------*- C++ -*----------------------------------*\
  =========                 |
  \\      /  F ield         | OpenFOAM: The Open Source CFD Toolbox
   \\    /   O peration     | Website:  https://openfoam.org
    \\  /    A nd           | Version:  7
     \\/     M anipulation  |
\*---------------------------------------------------------------------------*/
FoamFile
{
    version     2.0;
    format      ascii;
    class       volScalarField;
    location    "0.000558243009";
    object      PC4H9;
}
// * * * * * * * * * * * * * * * * * * * * * * * * * * * * * * * * * * * * * //

dimensions      [0 0 0 0 0 0 0];

internalField   nonuniform List<scalar> 
1500
(
1.66418935e-18
6.48309486e-18
1.334085485e-17
1.993402638e-17
2.477675876e-17
2.768393132e-17
2.916697397e-17
2.982561106e-17
3.008463006e-17
3.017604419e-17
3.020532098e-17
3.021391025e-17
3.021623724e-17
3.021682339e-17
3.021696147e-17
3.021699205e-17
3.021699844e-17
3.021699971e-17
3.021699995e-17
3.021699999e-17
3.0217e-17
3.0217e-17
3.0217e-17
3.0217e-17
3.0217e-17
3.0217e-17
3.0217e-17
3.0217e-17
3.0217e-17
3.0217e-17
3.0217e-17
3.0217e-17
3.0217e-17
3.0217e-17
3.0217e-17
3.0217e-17
3.0217e-17
3.0217e-17
3.0217e-17
3.0217e-17
3.0217e-17
3.0217e-17
3.0217e-17
3.0217e-17
3.0217e-17
3.0217e-17
3.0217e-17
3.0217e-17
3.0217e-17
3.0217e-17
3.0217e-17
3.0217e-17
3.0217e-17
3.0217e-17
3.0217e-17
3.0217e-17
3.0217e-17
3.0217e-17
3.0217e-17
3.0217e-17
3.0217e-17
3.0217e-17
3.0217e-17
3.0217e-17
3.0217e-17
3.0217e-17
3.0217e-17
3.0217e-17
3.0217e-17
3.0217e-17
3.0217e-17
3.0217e-17
3.0217e-17
3.0217e-17
3.0217e-17
3.0217e-17
3.0217e-17
3.0217e-17
3.0217e-17
3.0217e-17
3.0217e-17
3.0217e-17
3.0217e-17
3.0217e-17
3.0217e-17
3.0217e-17
3.0217e-17
3.0217e-17
3.0217e-17
3.0217e-17
3.0217e-17
3.0217e-17
3.0217e-17
3.0217e-17
3.0217e-17
3.0217e-17
3.0217e-17
3.0217e-17
3.0217e-17
3.0217e-17
3.0217e-17
3.0217e-17
3.0217e-17
3.0217e-17
3.0217e-17
3.0217e-17
3.0217e-17
3.0217e-17
3.0217e-17
3.0217e-17
3.0217e-17
3.0217e-17
3.0217e-17
3.0217e-17
3.0217e-17
3.0217e-17
3.0217e-17
3.0217e-17
3.0217e-17
3.0217e-17
3.0217e-17
3.0217e-17
3.0217e-17
3.0217e-17
3.0217e-17
3.0217e-17
3.0217e-17
3.0217e-17
3.0217e-17
3.0217e-17
3.0217e-17
3.0217e-17
3.0217e-17
3.0217e-17
3.0217e-17
3.0217e-17
3.0217e-17
3.0217e-17
3.0217e-17
3.0217e-17
3.0217e-17
3.0217e-17
3.0217e-17
3.0217e-17
3.0217e-17
3.0217e-17
3.0217e-17
3.0217e-17
3.0217e-17
3.0217e-17
3.0217e-17
3.0217e-17
3.0217e-17
3.0217e-17
3.0217e-17
3.0217e-17
3.0217e-17
3.0217e-17
3.0217e-17
3.0217e-17
3.0217e-17
3.0217e-17
3.0217e-17
3.0217e-17
3.0217e-17
3.0217e-17
3.0217e-17
3.0217e-17
3.0217e-17
3.0217e-17
3.0217e-17
3.0217e-17
3.0217e-17
3.0217e-17
3.0217e-17
3.0217e-17
3.0217e-17
3.0217e-17
3.0217e-17
3.0217e-17
3.0217e-17
3.0217e-17
3.0217e-17
3.0217e-17
3.0217e-17
3.0217e-17
3.0217e-17
3.0217e-17
3.0217e-17
3.0217e-17
3.0217e-17
3.0217e-17
3.0217e-17
3.0217e-17
3.0217e-17
3.0217e-17
3.0217e-17
3.0217e-17
3.0217e-17
3.0217e-17
3.0217e-17
3.0217e-17
3.0217e-17
3.0217e-17
3.0217e-17
3.0217e-17
3.0217e-17
3.0217e-17
3.0217e-17
3.0217e-17
3.0217e-17
3.0217e-17
3.0217e-17
3.0217e-17
3.0217e-17
3.0217e-17
3.0217e-17
3.0217e-17
3.0217e-17
3.0217e-17
3.0217e-17
3.0217e-17
3.0217e-17
3.0217e-17
3.0217e-17
3.0217e-17
3.0217e-17
3.0217e-17
3.0217e-17
3.0217e-17
3.0217e-17
3.0217e-17
3.0217e-17
3.0217e-17
3.0217e-17
3.0217e-17
3.0217e-17
3.021700001e-17
3.021700003e-17
3.02170001e-17
3.021700042e-17
3.021700174e-17
3.021700679e-17
3.021702488e-17
3.021708442e-17
3.021726319e-17
3.021774683e-17
3.021890166e-17
3.022123363e-17
3.022476413e-17
3.022572386e-17
3.022606191e-17
3.022641364e-17
3.022677973e-17
3.02271607e-17
3.022755708e-17
3.022796947e-17
3.022839853e-17
3.022884499e-17
3.022930957e-17
3.022979307e-17
3.023029629e-17
3.023082008e-17
3.023136534e-17
3.023193298e-17
3.023252397e-17
3.023313934e-17
3.023378014e-17
3.02344475e-17
3.023514257e-17
3.023586658e-17
3.023662082e-17
3.023740662e-17
3.023822541e-17
3.023907866e-17
3.023996792e-17
3.024089483e-17
3.024186109e-17
3.024286851e-17
3.024391898e-17
3.024501449e-17
3.024615711e-17
3.024734906e-17
3.024859264e-17
3.024989029e-17
3.025124458e-17
3.02526582e-17
3.025413399e-17
3.025567497e-17
3.02572843e-17
3.02589653e-17
3.026072152e-17
3.026255666e-17
3.026447466e-17
3.026647968e-17
3.02685761e-17
3.027076856e-17
3.027306198e-17
3.027546156e-17
3.02779728e-17
3.028060152e-17
3.028335392e-17
3.028623652e-17
3.028925627e-17
3.029242054e-17
3.029573713e-17
3.029921432e-17
3.030286093e-17
3.030668628e-17
3.031070031e-17
3.031491356e-17
3.031933723e-17
3.032398324e-17
3.032886424e-17
3.033399372e-17
3.033938599e-17
3.034505629e-17
3.035102083e-17
3.035729687e-17
3.036390276e-17
3.037085805e-17
3.037818353e-17
3.038590134e-17
3.039403505e-17
3.040260974e-17
3.041165211e-17
3.042119058e-17
3.043125541e-17
3.044187879e-17
3.045309499e-17
3.046494047e-17
3.047745404e-17
3.049067695e-17
3.050465312e-17
3.051942923e-17
3.053505493e-17
3.0551583e-17
3.056906952e-17
3.058757408e-17
3.060716001e-17
3.062789453e-17
3.064984902e-17
3.067309924e-17
3.069772557e-17
3.072381325e-17
3.075145268e-17
3.078073965e-17
3.081177566e-17
3.084466819e-17
3.087953103e-17
3.091648458e-17
3.09556562e-17
3.099718052e-17
3.104119981e-17
3.108786437e-17
3.113733283e-17
3.118977263e-17
3.124536033e-17
3.130428206e-17
3.136673393e-17
3.143292245e-17
3.150306496e-17
3.157739007e-17
3.165613812e-17
3.173956163e-17
3.182792577e-17
3.192150881e-17
3.202060263e-17
3.212551316e-17
3.223656088e-17
3.235408131e-17
3.247842545e-17
3.260996035e-17
3.27490695e-17
3.289615334e-17
3.305162978e-17
3.321593458e-17
3.338952187e-17
3.357286461e-17
3.376645496e-17
3.397080478e-17
3.4186446e-17
3.4413931e-17
3.465383304e-17
3.490674657e-17
3.517328754e-17
3.545409379e-17
3.574982523e-17
3.606116416e-17
3.638881545e-17
3.673350675e-17
3.709598862e-17
3.747703465e-17
3.787744152e-17
3.829802906e-17
3.873964019e-17
3.92031409e-17
3.968942012e-17
4.019938955e-17
4.073398348e-17
4.129415852e-17
4.188089326e-17
4.24951879e-17
4.313806386e-17
4.381056322e-17
4.451374823e-17
4.524870068e-17
4.601652122e-17
4.681832862e-17
4.765525902e-17
4.852846501e-17
4.943911475e-17
5.038839101e-17
5.137749008e-17
5.24076207e-17
5.34800029e-17
5.459586677e-17
5.575645123e-17
5.696300263e-17
5.821677345e-17
5.951902084e-17
6.087100512e-17
6.227398834e-17
6.372923262e-17
6.523799866e-17
6.680154405e-17
6.842112163e-17
7.009797781e-17
7.183335088e-17
7.362846928e-17
7.548454989e-17
7.740279627e-17
7.938439697e-17
8.143052378e-17
8.354233002e-17
8.572094884e-17
8.796749156e-17
9.028304604e-17
9.266867505e-17
9.512541472e-17
9.765427307e-17
1.002562285e-16
1.029322284e-16
1.05683188e-16
1.085099888e-16
1.114134778e-16
1.143944662e-16
1.174537286e-16
1.205920018e-16
1.238099847e-16
1.27108337e-16
1.304876794e-16
1.339485926e-16
1.374916177e-16
1.411172555e-16
1.448259674e-16
1.48618175e-16
1.52494261e-16
1.564545694e-16
1.60499407e-16
1.646290436e-16
1.688437138e-16
1.731436183e-16
1.775289253e-16
1.819997728e-16
1.865562702e-16
1.91198501e-16
1.95926525e-16
2.007403817e-16
2.056400925e-16
2.106256649e-16
2.156970954e-16
2.208543739e-16
2.260974874e-16
2.314264246e-16
2.368411805e-16
2.423417618e-16
2.479281915e-16
2.536005152e-16
2.593588066e-16
2.652031739e-16
2.711337664e-16
2.771507813e-16
2.832544711e-16
2.894451508e-16
2.957232063e-16
3.020891027e-16
3.085433925e-16
3.150867249e-16
3.217198554e-16
3.284436551e-16
3.352591213e-16
3.421673879e-16
3.491697363e-16
3.56267607e-16
3.634626108e-16
3.707565419e-16
3.781513897e-16
3.856493521e-16
3.932528492e-16
4.009645371e-16
4.087873219e-16
4.167243753e-16
4.247791488e-16
4.329553907e-16
4.412571611e-16
4.496888494e-16
4.582551913e-16
4.66961286e-16
4.758126151e-16
4.848150609e-16
4.939749259e-16
5.032989533e-16
5.127943455e-16
5.2246879e-16
5.323304765e-16
5.423881177e-16
5.526509739e-16
5.631288766e-16
5.738322526e-16
5.84772149e-16
5.959602578e-16
6.074089421e-16
6.191312616e-16
6.311409995e-16
6.43452689e-16
6.560816418e-16
6.690439763e-16
6.823566447e-16
6.960374667e-16
7.101051595e-16
7.24579371e-16
7.39480712e-16
7.548307942e-16
7.706522641e-16
7.869688362e-16
8.038053303e-16
8.211877116e-16
8.391431313e-16
8.576999678e-16
8.768878698e-16
8.967378006e-16
9.172820845e-16
9.385544545e-16
9.605901031e-16
9.834257335e-16
1.007099615e-15
1.031651638e-15
1.057123376e-15
1.083558147e-15
1.111001074e-15
1.139499162e-15
1.169101363e-15
1.199858652e-15
1.231824111e-15
1.265053008e-15
1.299602887e-15
1.335533665e-15
1.372907726e-15
1.411790032e-15
1.452248232e-15
1.494352785e-15
1.538177088e-15
1.583797614e-15
1.631294065e-15
1.680749532e-15
1.732250675e-15
1.785887917e-15
1.841755661e-15
1.899952533e-15
1.960581648e-15
2.023750917e-15
2.0895734e-15
2.158167706e-15
2.229658463e-15
2.304176866e-15
2.381861334e-15
2.462858284e-15
2.547323067e-15
2.635421108e-15
2.72732929e-15
2.823237658e-15
2.923351516e-15
3.027894036e-15
3.137109496e-15
3.251267332e-15
3.370667208e-15
3.495645388e-15
3.626582745e-15
3.763914865e-15
3.908144794e-15
4.059859154e-15
4.21974852e-15
4.388633228e-15
4.567496054e-15
4.757523655e-15
4.960159101e-15
5.177168517e-15
5.410725647e-15
5.663519169e-15
5.938888922e-15
6.240998845e-15
6.575056554e-15
6.947592155e-15
7.366812289e-15
7.843049723e-15
8.389334303e-15
9.022118016e-15
9.76219578e-15
1.063587476e-14
1.167645933e-14
1.292613672e-14
1.443837158e-14
1.628094657e-14
1.853982317e-14
2.132404374e-14
2.477195552e-14
2.905911236e-14
3.440830619e-14
4.110230129e-14
4.949999859e-14
6.005695248e-14
7.335140994e-14
9.011735592e-14
1.112864459e-13
1.380412107e-13
1.718825562e-13
2.147153883e-13
2.68957216e-13
3.37675879e-13
4.247641818e-13
5.351612848e-13
6.751333177e-13
8.52628977e-13
1.077730039e-12
1.363221969e-12
1.725316424e-12
2.18456579e-12
2.76702035e-12
3.505691875e-12
4.442403924e-12
5.630129826e-12
7.135945236e-12
9.044754407e-12
1.146398965e-11
1.45295334e-11
1.841317448e-11
2.333198664e-11
2.956011205e-11
3.744354829e-11
4.741867883e-11
6.003545927e-11
7.59863795e-11
9.61425716e-11
1.215987309e-10
1.537288692e-10
1.942553292e-10
2.453339641e-10
3.096589253e-10
3.90591105e-10
4.923149391e-10
6.200289779e-10
7.801763537e-10
9.80721972e-10
1.231483891e-09
1.544526843e-09
1.934626141e-09
2.41981017e-09
3.02198919e-09
3.76767722e-09
4.688812105e-09
5.823676588e-09
7.217920125e-09
8.925677477e-09
1.101077582e-08
1.354801743e-08
1.662452042e-08
2.034109537e-08
2.481363223e-08
3.01744686e-08
3.657370928e-08
4.41804659e-08
5.318398681e-08
6.379464968e-08
7.624479347e-08
9.078937351e-08
1.077064315e-07
1.272973816e-07
1.498871223e-07
1.758240103e-07
2.054797715e-07
2.392496851e-07
2.77553989e-07
3.208431978e-07
3.696141163e-07
4.244524399e-07
4.86136956e-07
5.558509496e-07
6.35833447e-07
7.30058096e-07
8.473558405e-07
1.003902693e-06
1.230655602e-06
1.57478067e-06
2.122651651e-06
2.974866511e-06
4.175773442e-06
5.547654188e-06
6.582158747e-06
6.756828219e-06
6.15603503e-06
5.261855044e-06
4.405044614e-06
3.678872168e-06
3.082244422e-06
2.622211376e-06
2.254165531e-06
1.944149815e-06
1.661096676e-06
1.398887278e-06
1.147982113e-06
9.127139998e-07
7.00072461e-07
5.190025099e-07
3.708634982e-07
2.5616262e-07
1.720029984e-07
1.132382086e-07
7.366577162e-08
4.746502539e-08
3.06074247e-08
1.970848179e-08
1.274064635e-08
8.256431562e-09
5.364280834e-09
3.49502272e-09
2.285692551e-09
1.490927524e-09
9.698110782e-10
6.312147271e-10
4.118705569e-10
2.690456089e-10
1.75855035e-10
1.150627407e-10
7.535201282e-11
4.928317266e-11
3.221488154e-11
2.131020734e-11
1.413664537e-11
9.330641942e-12
6.175226768e-12
4.098883465e-12
2.728821506e-12
1.822156575e-12
1.22038765e-12
8.204473651e-13
5.530931467e-13
3.741226958e-13
2.539554184e-13
1.730157968e-13
1.183174608e-13
8.122420498e-14
5.597836029e-14
3.873123949e-14
2.690301077e-14
1.875921818e-14
1.313006313e-14
9.22392755e-15
6.503226712e-15
4.600691016e-15
3.265075499e-15
2.323939485e-15
1.658430005e-15
1.186278051e-15
8.502934858e-16
6.105515284e-16
4.390652792e-16
3.161382016e-16
2.278560374e-16
1.643546046e-16
1.186181282e-16
8.564191844e-17
6.184638417e-17
4.466521086e-17
3.225477289e-17
2.328831346e-17
1.680965123e-17
1.212886291e-17
8.747681599e-18
6.306008703e-18
4.543477675e-18
3.271780721e-18
2.354712416e-18
1.693759321e-18
1.2176835e-18
8.749870956e-19
6.284581406e-19
4.512211285e-19
3.238771412e-19
2.324329652e-19
1.668017689e-19
1.19717922e-19
8.595189718e-20
6.17425768e-20
4.438712238e-20
3.194461334e-20
2.302225815e-20
1.662130409e-20
1.202602524e-20
8.72381685e-21
6.347731835e-21
4.635194044e-21
3.398361054e-21
2.502868347e-21
1.852597734e-21
1.378771604e-21
1.03215046e-21
7.774545943e-22
5.893783727e-22
4.497439037e-22
3.454691909e-22
2.671180609e-22
2.078653715e-22
1.627584797e-22
1.281899636e-22
1.015209575e-22
8.08117786e-23
6.462906628e-23
5.190748412e-23
4.185032678e-23
3.38579054e-23
2.747578875e-23
2.235726023e-23
1.823597284e-23
1.490593835e-23
1.220680622e-23
1.001297205e-23
8.225468993e-24
6.765891596e-24
5.571811393e-24
4.593293804e-24
3.790233108e-24
3.130299146e-24
2.587344615e-24
2.140161583e-24
1.771504691e-24
1.467319481e-24
1.216129567e-24
1.008547613e-24
8.368834511e-25
6.94828827e-25
5.772029338e-25
4.797463921e-25
3.989540304e-25
3.319388339e-25
2.763210417e-25
2.301375734e-25
1.917679637e-25
1.598736956e-25
1.333484628e-25
1.11277346e-25
9.290327025e-26
7.759942777e-26
6.484658184e-26
5.421437777e-26
4.534594214e-26
3.794518343e-26
3.176631511e-26
2.660520629e-26
2.229223701e-26
1.868639349e-26
1.567038669e-26
1.314661262e-26
1.103380944e-26
9.264288517e-27
7.781640421e-27
6.538833084e-27
5.49663477e-27
4.622304699e-27
3.888506835e-27
3.272407119e-27
2.754923588e-27
2.320102493e-27
1.95459969e-27
1.647248867e-27
1.388702046e-27
1.171130185e-27
9.879736179e-28
8.337339168e-28
7.038003851e-28
5.94305039e-28
5.020017706e-28
4.241652955e-28
3.5850667e-28
3.031027292e-28
2.563369619e-28
2.168501865e-28
1.83499133e-28
1.55321791e-28
1.315084158e-28
1.113771758e-28
9.43537428e-29
7.995418132e-29
6.777059606e-29
5.74590645e-29
4.872950695e-29
4.133719113e-29
3.507556812e-29
2.977026597e-29
2.527402519e-29
2.14624645e-29
1.823047364e-29
1.548921389e-29
1.316357685e-29
1.119004168e-29
9.514873593e-30
8.092606262e-30
6.884756112e-30
5.858738658e-30
4.986964932e-30
4.246060663e-30
3.616224632e-30
3.080673648e-30
2.625179382e-30
2.237678738e-30
1.907939849e-30
1.627280828e-30
1.388337256e-30
1.184855978e-30
1.01152919e-30
8.638509472e-31
7.37992893e-31
6.307027052e-31
5.392157608e-31
4.611828456e-31
3.946069641e-31
3.377894628e-31
2.892860642e-31
2.478674041e-31
2.124883654e-31
1.822586932e-31
1.564200987e-31
1.343274142e-31
1.154307525e-31
9.926158889e-32
8.5421126e-32
7.356931556e-32
6.34159489e-32
5.471402842e-32
4.725225562e-32
4.085113117e-32
3.535678379e-32
3.063828372e-32
2.658372899e-32
2.309734167e-32
2.009781735e-32
1.751506961e-32
1.528958329e-32
1.337034005e-32
1.171380374e-32
1.028280373e-32
9.045382332e-33
7.974200605e-33
7.045764878e-33
6.240198673e-33
5.540274919e-33
4.931459475e-33
4.401038559e-33
3.938209208e-33
3.533669834e-33
3.179453984e-33
2.868875558e-33
2.595907921e-33
2.355551342e-33
2.143458516e-33
1.955878642e-33
1.789620174e-33
1.641919363e-33
1.51040609e-33
1.392992663e-33
1.287849216e-33
1.193503191e-33
1.10860771e-33
1.032051165e-33
9.627448568e-34
8.999509733e-34
8.428408765e-34
7.907333573e-34
7.431034505e-34
6.994574922e-34
6.593378705e-34
6.223591903e-34
5.882131743e-34
5.566291094e-34
5.27361046e-34
5.001874335e-34
4.749044347e-34
4.512795327e-34
4.291994653e-34
4.085234928e-34
3.891899691e-34
3.710309785e-34
3.539579217e-34
3.378624247e-34
3.226789437e-34
3.083365929e-34
2.947609316e-34
2.819230167e-34
2.697708906e-34
2.58230907e-34
2.473082389e-34
2.369533074e-34
2.271112385e-34
2.177527837e-34
2.088434008e-34
2.003683697e-34
1.923059067e-34
1.84624031e-34
1.772891685e-34
1.702884593e-34
1.636201146e-34
1.57250003e-34
1.511609226e-34
1.453372559e-34
1.3976882e-34
1.344501954e-34
1.293566115e-34
1.24480716e-34
1.198158554e-34
1.153428314e-34
1.110565429e-34
1.069511302e-34
1.030262252e-34
9.925402996e-35
9.564285e-35
9.218358895e-35
8.887731205e-35
8.570673184e-35
8.266478597e-35
7.97400353e-35
7.692925339e-35
7.422524472e-35
7.162518301e-35
6.913017935e-35
6.672896763e-35
6.442695851e-35
6.221463183e-35
6.007999082e-35
5.803262979e-35
5.606362021e-35
5.417204912e-35
5.235026286e-35
5.059505467e-35
4.890345597e-35
4.727684035e-35
4.570745458e-35
4.419962212e-35
4.274383879e-35
4.134021869e-35
3.999150287e-35
3.869301797e-35
3.74381018e-35
3.623095769e-35
3.506883514e-35
3.394432721e-35
3.285758906e-35
3.181415391e-35
3.081125941e-35
2.983908476e-35
2.890111214e-35
2.800095056e-35
2.713182906e-35
2.628311343e-35
2.546715194e-35
2.467953307e-35
2.391982978e-35
2.318297347e-35
2.24695586e-35
2.178093988e-35
2.111586366e-35
2.047461713e-35
1.985375109e-35
1.925337509e-35
1.867334921e-35
1.811293918e-35
1.757116195e-35
1.704767096e-35
1.654099683e-35
1.60501905e-35
1.55759247e-35
1.51146432e-35
1.466876181e-35
1.42355574e-35
1.38190006e-35
1.341751419e-35
1.302938131e-35
1.265025938e-35
1.228236436e-35
1.192605526e-35
1.158157064e-35
1.124811909e-35
1.092525731e-35
1.061126432e-35
1.030772245e-35
1.001251783e-35
9.7258425e-36
9.448376415e-36
9.181416868e-36
8.921668407e-36
8.670031383e-36
8.426780883e-36
8.191945774e-36
7.960846328e-36
7.735630399e-36
7.518579153e-36
7.308653628e-36
7.104892112e-36
6.907276178e-36
6.715552489e-36
6.529254915e-36
6.349434886e-36
6.174258361e-36
6.005022e-36
5.839479357e-36
5.676655293e-36
5.519538993e-36
5.369222486e-36
5.224767513e-36
5.084826724e-36
4.947463239e-36
4.815511926e-36
4.685700554e-36
4.557913955e-36
4.434396286e-36
4.315314322e-36
4.199728666e-36
4.085925076e-36
3.977268558e-36
3.872443291e-36
3.768547318e-36
3.66650974e-36
3.56765664e-36
3.471544203e-36
3.376448382e-36
3.286154551e-36
3.198296866e-36
3.11294636e-36
3.029597776e-36
2.948432829e-36
2.86861263e-36
2.792065092e-36
2.718644081e-36
2.647464994e-36
2.579160121e-36
2.511620493e-36
2.445458882e-36
2.381156632e-36
2.318830553e-36
2.258167396e-36
2.198588015e-36
2.140530832e-36
2.084503533e-36
2.030538084e-36
1.97751982e-36
1.926311341e-36
1.877229001e-36
1.829660902e-36
1.781867444e-36
1.736006387e-36
1.691751972e-36
1.648724792e-36
1.606837849e-36
1.566090075e-36
1.525472337e-36
1.485304528e-36
1.445087893e-36
1.40743306e-36
1.3706513e-36
1.33487304e-36
1.30041777e-36
1.267084469e-36
1.235257714e-36
1.203502966e-36
1.17248968e-36
1.143451726e-36
1.114292964e-36
1.08618421e-36
1.059551289e-36
1.033475311e-36
1.007241337e-36
9.823363253e-37
9.575967608e-37
9.322622476e-37
9.082440991e-37
8.844536875e-37
8.619083103e-37
8.399689279e-37
8.188827395e-37
7.976581433e-37
7.771679288e-37
7.567503781e-37
7.368889721e-37
7.184741878e-37
7.011540376e-37
6.837250114e-37
6.67177489e-37
6.511195022e-37
6.341509615e-37
6.177705371e-37
6.02351889e-37
5.865212207e-37
5.718589599e-37
5.569844958e-37
5.418224074e-37
5.27999561e-37
5.145224801e-37
5.012876282e-37
4.887449547e-37
4.763233478e-37
4.637447211e-37
4.529483064e-37
4.420688366e-37
4.302785739e-37
4.189329896e-37
4.083813155e-37
3.982548933e-37
3.884485008e-37
3.791280062e-37
3.703736337e-37
3.617230178e-37
3.528808479e-37
3.444997683e-37
3.357028357e-37
3.266121233e-37
3.171516966e-37
3.088032088e-37
3.015996788e-37
2.957665243e-37
2.888555088e-37
2.81796699e-37
2.738932771e-37
2.66093791e-37
2.593715299e-37
2.523332784e-37
2.460126963e-37
2.400022933e-37
2.335097381e-37
2.274808126e-37
2.216288987e-37
2.15492281e-37
1.647680838e-37
1.167675829e-37
8.775720113e-38
6.342446511e-38
4.23278029e-38
2.918108571e-38
2.073083803e-38
1.407328104e-38
7.181316441e-39
6.373215058e-39
5.059476563e-39
3.871297217e-39
2.575834414e-39
1.905264137e-39
1.675032547e-39
3.132603971e-40
3.355664067e-40
4.865881223e-41
5.589582333e-40
4.553971611e-40
1.717844261e-40
6.135463587e-42
4.650771694e-40
3.283164178e-41
8.153767345e-41
2.837022876e-41
9.17755514e-41
3.501738857e-41
3.523767179e-42
8.503494931e-42
0
1.382490856e-41
8.30870355e-42
5.376390864e-43
1.180797948e-41
1.79958646e-41
0
0
2.772659745e-43
1.386174504e-41
1.596978146e-42
4.017874686e-43
6.184594492e-41
4.412512245e-41
1.752209406e-42
2.156622789e-41
1.484246292e-43
0
0
6.66435321e-41
4.101704691e-41
2.135053719e-42
6.238960747e-43
5.663556447e-41
8.392374684e-41
3.030803899e-41
0
1.02703427e-40
1.011610259e-40
3.445293583e-41
7.859673609e-43
3.79559714e-41
1.766049403e-41
0
0
3.819575983e-42
9.372956464e-43
1.802909185e-43
1.159740192e-42
8.860912022e-43
6.110869931e-42
0
1.006182471e-41
1.562692127e-41
6.0655376e-42
0
1.238348111e-41
0
6.851630533e-44
6.237563692e-42
2.969106692e-41
0
7.313209377e-42
6.095897862e-42
0
2.708150611e-42
1.532086323e-42
5.888225687e-44
1.465539352e-42
1.897305009e-42
1.499420242e-42
2.079104816e-42
9.898256084e-43
1.395880219e-42
0
6.803412395e-45
9.663692286e-43
0
5.261687179e-43
1.094189769e-44
9.449995982e-44
1.313370543e-43
1.086232018e-43
0
0
0
1.036478224e-43
0
1.098176131e-42
2.113218904e-44
2.027316649e-45
3.601168415e-44
8.111946191e-44
1.532150943e-43
2.493307683e-43
0
2.436123354e-43
0
0
2.054210044e-43
1.4040721e-43
2.552915965e-44
1.928456478e-44
1.828610159e-44
2.678477111e-43
0
2.16048848e-43
0
1.617279631e-44
0
0
2.729781134e-44
0
2.081169388e-43
1.231889947e-43
1.20685755e-43
0
0
0
6.410726469e-43
0
1.079074271e-43
0
1.546034402e-42
3.403307908e-43
1.783925896e-43
1.190915197e-42
2.585026139e-43
9.516198574e-44
7.275197928e-43
0
3.13611045e-43
6.109157833e-43
2.661362979e-42
3.716785477e-44
0
0
2.588512644e-42
3.251606219e-42
1.038555929e-42
2.056257504e-43
1.184257244e-44
7.782580257e-43
4.224575845e-43
1.441323429e-42
5.430366707e-43
1.384554664e-42
1.578539502e-42
1.483576059e-42
1.928346527e-42
3.754035385e-43
1.137716729e-42
5.384217816e-43
1.208261982e-42
2.166786965e-42
6.305039232e-43
5.893094196e-43
0
3.165360411e-43
7.117075963e-44
3.229123546e-45
2.452935069e-43
2.320046862e-43
1.383487097e-42
1.025971342e-42
0
5.712157855e-43
1.44836809e-42
4.94065653e-44
2.254867531e-42
1.450538622e-43
1.817652525e-42
3.018030216e-43
1.244894041e-43
3.295693816e-43
1.516277082e-44
0
2.334455245e-46
1.321643459e-43
3.765650465e-43
1.426951378e-42
3.094256597e-43
1.648974134e-42
1.557926795e-42
2.037240652e-43
5.364432204e-43
1.02972849e-42
3.480770805e-43
1.244365107e-42
0
4.51921328e-46
0
3.194578434e-43
0
1.940822415e-42
7.004288765e-43
2.573627784e-43
0
2.260383261e-47
1.207223695e-45
6.042297792e-45
5.961958629e-43
3.325704145e-44
9.586134413e-44
6.648901535e-46
6.633269293e-45
0
0
6.641459872e-44
1.046385944e-43
1.775121802e-43
3.304121486e-45
4.054524415e-44
9.974408748e-46
3.03992218e-43
3.70706298e-45
1.061609679e-42
2.972658486e-43
6.701774494e-43
5.417150824e-45
7.722540191e-45
4.217002194e-43
3.659578887e-43
0
1.422951488e-43
0
7.989083841e-43
0
0
1.204876675e-43
)
;

boundaryField
{
    inlet
    {
        type            fixedValue;
        value           uniform 0;
    }
    outlet
    {
        type            zeroGradient;
    }
    wall
    {
        type            empty;
    }
}


// ************************************************************************* //
