/*--------------------------------*- C++ -*----------------------------------*\
  =========                 |
  \\      /  F ield         | OpenFOAM: The Open Source CFD Toolbox
   \\    /   O peration     | Website:  https://openfoam.org
    \\  /    A nd           | Version:  7
     \\/     M anipulation  |
\*---------------------------------------------------------------------------*/
FoamFile
{
    version     2.0;
    format      ascii;
    class       volScalarField;
    location    "0.000558243009";
    object      PC4H9_0;
}
// * * * * * * * * * * * * * * * * * * * * * * * * * * * * * * * * * * * * * //

dimensions      [0 0 0 0 0 0 0];

internalField   nonuniform List<scalar> 
1500
(
1.665369717e-18
6.48657012e-18
1.334589563e-17
1.993894945e-17
2.478043505e-17
2.76861729e-17
2.91681327e-17
2.982613132e-17
3.008483658e-17
3.017611769e-17
3.020534471e-17
3.021391727e-17
3.021623916e-17
3.021682387e-17
3.021696159e-17
3.021699207e-17
3.021699845e-17
3.021699971e-17
3.021699995e-17
3.021699999e-17
3.0217e-17
3.0217e-17
3.0217e-17
3.0217e-17
3.0217e-17
3.0217e-17
3.0217e-17
3.0217e-17
3.0217e-17
3.0217e-17
3.0217e-17
3.0217e-17
3.0217e-17
3.0217e-17
3.0217e-17
3.0217e-17
3.0217e-17
3.0217e-17
3.0217e-17
3.0217e-17
3.0217e-17
3.0217e-17
3.0217e-17
3.0217e-17
3.0217e-17
3.0217e-17
3.0217e-17
3.0217e-17
3.0217e-17
3.0217e-17
3.0217e-17
3.0217e-17
3.0217e-17
3.0217e-17
3.0217e-17
3.0217e-17
3.0217e-17
3.0217e-17
3.0217e-17
3.0217e-17
3.0217e-17
3.0217e-17
3.0217e-17
3.0217e-17
3.0217e-17
3.0217e-17
3.0217e-17
3.0217e-17
3.0217e-17
3.0217e-17
3.0217e-17
3.0217e-17
3.0217e-17
3.0217e-17
3.0217e-17
3.0217e-17
3.0217e-17
3.0217e-17
3.0217e-17
3.0217e-17
3.0217e-17
3.0217e-17
3.0217e-17
3.0217e-17
3.0217e-17
3.0217e-17
3.0217e-17
3.0217e-17
3.0217e-17
3.0217e-17
3.0217e-17
3.0217e-17
3.0217e-17
3.0217e-17
3.0217e-17
3.0217e-17
3.0217e-17
3.0217e-17
3.0217e-17
3.0217e-17
3.0217e-17
3.0217e-17
3.0217e-17
3.0217e-17
3.0217e-17
3.0217e-17
3.0217e-17
3.0217e-17
3.0217e-17
3.0217e-17
3.0217e-17
3.0217e-17
3.0217e-17
3.0217e-17
3.0217e-17
3.0217e-17
3.0217e-17
3.0217e-17
3.0217e-17
3.0217e-17
3.0217e-17
3.0217e-17
3.0217e-17
3.0217e-17
3.0217e-17
3.0217e-17
3.0217e-17
3.0217e-17
3.0217e-17
3.0217e-17
3.0217e-17
3.0217e-17
3.0217e-17
3.0217e-17
3.0217e-17
3.0217e-17
3.0217e-17
3.0217e-17
3.0217e-17
3.0217e-17
3.0217e-17
3.0217e-17
3.0217e-17
3.0217e-17
3.0217e-17
3.0217e-17
3.0217e-17
3.0217e-17
3.0217e-17
3.0217e-17
3.0217e-17
3.0217e-17
3.0217e-17
3.0217e-17
3.0217e-17
3.0217e-17
3.0217e-17
3.0217e-17
3.0217e-17
3.0217e-17
3.0217e-17
3.0217e-17
3.0217e-17
3.0217e-17
3.0217e-17
3.0217e-17
3.0217e-17
3.0217e-17
3.0217e-17
3.0217e-17
3.0217e-17
3.0217e-17
3.0217e-17
3.0217e-17
3.0217e-17
3.0217e-17
3.0217e-17
3.0217e-17
3.0217e-17
3.0217e-17
3.0217e-17
3.0217e-17
3.0217e-17
3.0217e-17
3.0217e-17
3.0217e-17
3.0217e-17
3.0217e-17
3.0217e-17
3.0217e-17
3.0217e-17
3.0217e-17
3.0217e-17
3.0217e-17
3.0217e-17
3.0217e-17
3.0217e-17
3.0217e-17
3.0217e-17
3.0217e-17
3.0217e-17
3.0217e-17
3.0217e-17
3.0217e-17
3.0217e-17
3.0217e-17
3.0217e-17
3.0217e-17
3.0217e-17
3.0217e-17
3.0217e-17
3.0217e-17
3.0217e-17
3.0217e-17
3.0217e-17
3.0217e-17
3.0217e-17
3.0217e-17
3.0217e-17
3.0217e-17
3.0217e-17
3.0217e-17
3.0217e-17
3.0217e-17
3.0217e-17
3.0217e-17
3.0217e-17
3.0217e-17
3.0217e-17
3.0217e-17
3.0217e-17
3.0217e-17
3.0217e-17
3.0217e-17
3.0217e-17
3.0217e-17
3.0217e-17
3.021700001e-17
3.021700003e-17
3.02170001e-17
3.021700042e-17
3.021700174e-17
3.02170068e-17
3.021702492e-17
3.021708455e-17
3.021726362e-17
3.021774811e-17
3.021890503e-17
3.022124133e-17
3.02247785e-17
3.022574018e-17
3.02260787e-17
3.022643108e-17
3.02267979e-17
3.022717963e-17
3.022757677e-17
3.022798995e-17
3.022841984e-17
3.022886715e-17
3.022933262e-17
3.022981705e-17
3.023032124e-17
3.023084605e-17
3.023139235e-17
3.023196109e-17
3.023255323e-17
3.02331698e-17
3.023381184e-17
3.02344805e-17
3.023517692e-17
3.023590235e-17
3.023665806e-17
3.023744541e-17
3.023826581e-17
3.023912073e-17
3.024001175e-17
3.024094049e-17
3.024190866e-17
3.024291808e-17
3.024397064e-17
3.024506832e-17
3.024621323e-17
3.024740756e-17
3.024865364e-17
3.02499539e-17
3.025131091e-17
3.025272739e-17
3.025420617e-17
3.025575028e-17
3.025736288e-17
3.025904732e-17
3.026080713e-17
3.026264604e-17
3.0264568e-17
3.026657716e-17
3.026867792e-17
3.027087495e-17
3.027317316e-17
3.027557776e-17
3.027809428e-17
3.028072855e-17
3.028348677e-17
3.02863755e-17
3.02894017e-17
3.029257275e-17
3.029589647e-17
3.029938118e-17
3.03030357e-17
3.030686939e-17
3.03108922e-17
3.031511471e-17
3.031954814e-17
3.032420445e-17
3.032909633e-17
3.033423729e-17
3.033964168e-17
3.034532479e-17
3.035130287e-17
3.035759322e-17
3.036421424e-17
3.037118554e-17
3.037852797e-17
3.038626371e-17
3.039441641e-17
3.040301121e-17
3.041207489e-17
3.042163594e-17
3.043172471e-17
3.044237346e-17
3.045361658e-17
3.04654906e-17
3.047803445e-17
3.04912895e-17
3.050529977e-17
3.052011209e-17
3.053577622e-17
3.055234509e-17
3.056987494e-17
3.058842552e-17
3.060806031e-17
3.062884673e-17
3.065085635e-17
3.067416512e-17
3.069885364e-17
3.072500738e-17
3.075271696e-17
3.078207845e-17
3.08131936e-17
3.084617017e-17
3.088112224e-17
3.091817054e-17
3.095744273e-17
3.09990738e-17
3.104320639e-17
3.108999116e-17
3.113958716e-17
3.119216224e-17
3.124789339e-17
3.130696721e-17
3.136958029e-17
3.143593964e-17
3.150626313e-17
3.158077992e-17
3.165973092e-17
3.174336924e-17
3.183196069e-17
3.192578417e-17
3.202513225e-17
3.213031154e-17
3.224164325e-17
3.235946366e-17
3.248412456e-17
3.261599379e-17
3.275545568e-17
3.290291154e-17
3.305878016e-17
3.322349822e-17
3.339752082e-17
3.358132186e-17
3.377539452e-17
3.398025168e-17
3.419642632e-17
3.442447193e-17
3.466496284e-17
3.491849464e-17
3.518568445e-17
3.546717127e-17
3.576361622e-17
3.60757028e-17
3.640413715e-17
3.674964816e-17
3.711298765e-17
3.749493052e-17
3.789627475e-17
3.831784147e-17
3.876047494e-17
3.922504246e-17
3.971243429e-17
4.02235635e-17
4.075936569e-17
4.132079882e-17
4.190884279e-17
4.252449914e-17
4.316879059e-17
4.384276053e-17
4.454747249e-17
4.528400952e-17
4.605347349e-17
4.685698441e-17
4.769567958e-17
4.857071275e-17
4.948325321e-17
5.043448478e-17
5.142560478e-17
5.245782295e-17
5.353236024e-17
5.465044764e-17
5.581332486e-17
5.702223905e-17
5.827844337e-17
5.95831956e-17
6.093775664e-17
6.2343389e-17
6.380135525e-17
6.53129164e-17
6.68793303e-17
6.850184997e-17
7.01817219e-17
7.192018438e-17
7.371846575e-17
7.55777827e-17
7.749933853e-17
7.948432141e-17
8.153390266e-17
8.364923504e-17
8.583145103e-17
8.808166122e-17
9.04009526e-17
9.279038699e-17
9.52509995e-17
9.7783797e-17
1.003897567e-16
1.030698246e-16
1.058249146e-16
1.086559067e-16
1.115636463e-16
1.145489429e-16
1.176125695e-16
1.207552611e-16
1.239777147e-16
1.272805882e-16
1.306645002e-16
1.341300295e-16
1.376777149e-16
1.413080555e-16
1.450215103e-16
1.488184989e-16
1.526994018e-16
1.56664561e-16
1.607142809e-16
1.648488294e-16
1.69068439e-16
1.733733083e-16
1.777636035e-16
1.822394607e-16
1.868009873e-16
1.914482652e-16
1.961813524e-16
2.010002868e-16
2.059050886e-16
2.108957637e-16
2.159723076e-16
2.211347091e-16
2.263829544e-16
2.317170317e-16
2.371369356e-16
2.426426724e-16
2.482342655e-16
2.539117608e-16
2.596752325e-16
2.655247898e-16
2.714605834e-16
2.774828119e-16
2.835917298e-16
2.897876547e-16
2.960709751e-16
3.024421592e-16
3.089017633e-16
3.154504407e-16
3.220889513e-16
3.288181715e-16
3.356391043e-16
3.425528898e-16
3.495608162e-16
3.566643313e-16
3.638650543e-16
3.711647879e-16
3.785655309e-16
3.860694917e-16
3.93679101e-16
4.013970267e-16
4.092261876e-16
4.171697684e-16
4.252312352e-16
4.334143511e-16
4.417231925e-16
4.501621658e-16
4.587360244e-16
4.67449887e-16
4.763092549e-16
4.853200316e-16
4.94488542e-16
5.038215531e-16
5.133262907e-16
5.230104695e-16
5.328823066e-16
5.429505423e-16
5.532244669e-16
5.637139429e-16
5.744294298e-16
5.853820085e-16
5.965834068e-16
6.080460249e-16
6.197829612e-16
6.318080392e-16
6.44135834e-16
6.56781701e-16
6.697618041e-16
6.830931418e-16
6.967935826e-16
7.108818941e-16
7.253777768e-16
7.403018951e-16
7.556759175e-16
7.715225499e-16
7.878655668e-16
8.047298506e-16
8.221414312e-16
8.401275269e-16
8.587165857e-16
8.77938328e-16
8.978237914e-16
9.184053771e-16
9.397168976e-16
9.617936274e-16
9.846723548e-16
1.008391437e-15
1.032990855e-15
1.058512277e-15
1.084999116e-15
1.112496599e-15
1.141051832e-15
1.170713876e-15
1.201533817e-15
1.233564853e-15
1.266862371e-15
1.301484039e-15
1.337489902e-15
1.374942478e-15
1.413906866e-15
1.454450859e-15
1.496645065e-15
1.540563035e-15
1.586281404e-15
1.633880039e-15
1.683442207e-15
1.735054748e-15
1.788808275e-15
1.844797389e-15
1.90312092e-15
1.9638822e-15
2.027189367e-15
2.093155717e-15
2.161900109e-15
2.233547435e-15
2.308229167e-15
2.386084019e-15
2.46725872e-15
2.551908958e-15
2.640200519e-15
2.732310672e-15
2.828429884e-15
2.928763921e-15
3.033536462e-15
3.142992351e-15
3.257401656e-15
3.377064758e-15
3.502318737e-15
3.633545407e-15
3.771181452e-15
3.915731206e-15
4.067782817e-15
4.228028685e-15
4.397291338e-15
4.576556217e-15
4.767013221e-15
4.970109401e-15
5.187615783e-15
5.421712174e-15
5.675094772e-15
5.951112779e-15
6.253941809e-15
6.588804074e-15
6.962247947e-15
7.382502964e-15
7.859930617e-15
8.407596816e-15
9.041998855e-15
9.783988587e-15
1.065994476e-14
1.170326174e-14
1.295623991e-14
1.447248624e-14
1.631996225e-14
1.858485431e-14
2.137648745e-14
2.483356403e-14
2.913208405e-14
3.449539967e-14
4.120697847e-14
4.96266039e-14
6.02109373e-14
7.353961356e-14
9.03483569e-14
1.115710013e-13
1.38392805e-13
1.72318086e-13
2.152560173e-13
2.696294401e-13
3.385128532e-13
4.25807371e-13
5.364625169e-13
6.767573323e-13
8.546565884e-13
1.080262055e-12
1.36638404e-12
1.729265038e-12
2.189495665e-12
2.773173545e-12
3.513368992e-12
4.451977848e-12
5.642062553e-12
7.150808412e-12
9.063254343e-12
1.148699767e-11
1.455812255e-11
1.844866369e-11
2.337599365e-11
2.961461645e-11
3.751096606e-11
4.750194983e-11
6.01381489e-11
7.611279532e-11
9.629789519e-11
1.217891641e-10
1.539617915e-10
1.945394617e-10
2.456795297e-10
3.100777912e-10
3.910968829e-10
4.929230102e-10
6.20756394e-10
7.810415439e-10
9.817441607e-10
1.232682096e-09
1.545918284e-09
1.936223824e-09
2.421619351e-09
3.024002348e-09
3.769867055e-09
4.691121976e-09
5.826007682e-09
7.22011452e-09
8.927496136e-09
1.101187041e-08
1.354789486e-08
1.662249877e-08
2.033625018e-08
2.480473203e-08
3.015989907e-08
3.655138563e-08
4.414773379e-08
5.313751247e-08
6.373029991e-08
7.615750611e-08
9.067301725e-08
1.075536528e-07
1.270994353e-07
1.496336838e-07
1.755029741e-07
2.050770473e-07
2.387490174e-07
2.769368187e-07
3.200885396e-07
3.686982517e-07
4.233477183e-07
4.848076098e-07
5.54222234e-07
6.338052815e-07
7.273083133e-07
8.436264784e-07
9.988412221e-07
1.224148529e-06
1.564548353e-06
2.106712848e-06
2.950893584e-06
4.14574465e-06
5.530104497e-06
6.616327657e-06
6.860497499e-06
6.274396305e-06
5.343870301e-06
4.452544673e-06
3.710217057e-06
3.107874406e-06
2.645335816e-06
2.277548136e-06
1.968931431e-06
1.687878255e-06
1.426177507e-06
1.174274265e-06
9.3597062e-07
7.211749951e-07
5.358986895e-07
3.836428632e-07
2.650586165e-07
1.775744674e-07
1.163519713e-07
7.518770609e-08
4.821138657e-08
3.092776486e-08
1.985056076e-08
1.284096185e-08
8.36158471e-09
5.481778591e-09
3.618204062e-09
2.404677188e-09
1.604355141e-09
1.071374913e-09
7.185090513e-10
4.837901328e-10
3.268768738e-10
2.214669116e-10
1.507075996e-10
1.028280012e-10
7.02823288e-11
4.815320642e-11
3.327643002e-11
2.305815588e-11
1.595794401e-11
1.107324767e-11
7.701068561e-12
5.365806768e-12
3.744348443e-12
2.616057424e-12
1.829947181e-12
1.280931283e-12
8.972508511e-13
6.288493499e-13
4.409341287e-13
3.092779814e-13
2.169849069e-13
1.522562128e-13
1.068433922e-13
7.497424528e-14
5.260607353e-14
3.690547475e-14
2.588547074e-14
1.815206718e-14
1.272532806e-14
8.917691288e-15
6.246633381e-15
4.373418705e-15
3.060204307e-15
2.139973334e-15
1.495444761e-15
1.044270697e-15
7.286419514e-16
5.079865846e-16
3.538399378e-16
2.462399075e-16
1.711939348e-16
1.188992144e-16
8.24923481e-17
5.717116195e-17
3.957811129e-17
2.736752533e-17
1.890201974e-17
1.303963669e-17
8.984686765e-18
6.183297457e-18
4.25032047e-18
2.918222579e-18
2.001377609e-18
1.371140472e-18
9.384637638e-19
6.417889193e-19
4.386128791e-19
2.996286306e-19
2.046558929e-19
1.398183062e-19
9.558774346e-20
6.543113225e-20
4.48754186e-20
3.086235773e-20
2.130398528e-20
1.477667666e-20
1.031098882e-20
7.247528278e-21
5.1382408e-21
3.678916931e-21
2.66311665e-21
1.95076695e-21
1.446794257e-21
1.086607987e-21
8.262535458e-22
6.357423126e-22
4.945393832e-22
3.885143507e-22
3.078824093e-22
2.45814754e-22
1.975006608e-22
1.595140037e-22
1.293847674e-22
1.053085099e-22
8.594864668e-23
7.030122268e-23
5.760180999e-23
4.726086891e-23
3.881841261e-23
3.191182977e-23
2.625273799e-23
2.161008905e-23
1.77976487e-23
1.466457636e-23
1.208823267e-23
9.968613041e-24
8.223987123e-24
6.787446868e-24
5.604149835e-24
4.629101875e-24
3.825363541e-24
3.162592819e-24
2.615857209e-24
2.164662991e-24
1.792160575e-24
1.484493184e-24
1.230262586e-24
1.020090586e-24
8.462590176e-25
7.024140875e-25
5.833235717e-25
4.84677386e-25
4.029237743e-25
3.351347431e-25
2.788955178e-25
2.322137155e-25
1.934447104e-25
1.612302917e-25
1.344482353e-25
1.121708349e-25
9.363079493e-26
7.819316189e-26
6.533222317e-26
5.461247965e-26
4.567297368e-26
3.821437062e-26
3.198830493e-26
2.678859139e-26
2.244397119e-26
1.881211993e-26
1.577469737e-26
1.323325468e-26
1.110584824e-26
9.324238056e-27
7.831567343e-27
6.58044007e-27
5.531327251e-27
4.651244958e-27
3.912657684e-27
3.292567342e-27
2.771756636e-27
2.334160061e-27
1.966340964e-27
1.657056421e-27
1.396894879e-27
1.177974382e-27
9.936912058e-28
8.385103361e-28
7.077904424e-28
5.976381095e-28
5.047859109e-28
4.264908198e-28
3.604490402e-28
3.047250127e-28
2.576918913e-28
2.179818029e-28
1.844442352e-28
1.561111395e-28
1.321677029e-28
1.119278551e-28
9.481373669e-29
8.033845788e-29
6.809166061e-29
5.772735018e-29
4.895372396e-29
4.152461368e-29
3.523227154e-29
2.990131659e-29
2.538365681e-29
2.155420313e-29
1.830726371e-29
1.555351603e-29
1.321744166e-29
1.123517949e-29
9.552716897e-30
8.124349137e-30
6.911392618e-30
5.881102284e-30
5.005749905e-30
4.261849723e-30
3.629503104e-30
3.091845728e-30
2.63458439e-30
2.245601199e-30
1.914616399e-30
1.63291155e-30
1.393088039e-30
1.188867145e-30
1.01491806e-30
8.667144688e-31
7.404134862e-31
6.327491168e-31
5.409470826e-31
4.626483735e-31
3.958482341e-31
3.3884136e-31
2.901781082e-31
2.486245897e-31
2.131311968e-31
1.828042005e-31
1.56883104e-31
1.347198379e-31
1.157632621e-31
9.954386578e-32
8.566081155e-32
7.377272625e-32
6.358878961e-32
5.486052902e-32
4.737670493e-32
4.095678573e-32
3.544657473e-32
3.071448976e-32
2.664836652e-32
2.315217934e-32
2.014410121e-32
1.755426228e-32
1.532265943e-32
1.339830024e-32
1.17375041e-32
1.030282391e-32
9.06209537e-33
7.988049936e-33
7.057339743e-33
6.249864895e-33
5.548422246e-33
4.9383803e-33
4.406886953e-33
3.943078728e-33
3.537703486e-33
3.182862962e-33
2.871699085e-33
2.598218619e-33
2.357480588e-33
2.14508358e-33
1.957303781e-33
1.790810571e-33
1.642869981e-33
1.511146339e-33
1.393607135e-33
1.288404242e-33
1.193959265e-33
1.108899931e-33
1.032216633e-33
9.629078651e-34
9.000398771e-34
8.428605139e-34
7.907113244e-34
7.430709175e-34
6.99384672e-34
6.592346136e-34
6.22271054e-34
5.881328647e-34
5.565660348e-34
5.273129423e-34
5.001444198e-34
4.748360003e-34
4.512047009e-34
4.290948788e-34
4.084160254e-34
3.890414569e-34
3.708614659e-34
3.53766284e-34
3.377124187e-34
3.225342492e-34
3.081974321e-34
2.946527977e-34
2.818092404e-34
2.696658992e-34
2.581548818e-34
2.472267387e-34
2.368532649e-34
2.270235028e-34
2.17674473e-34
2.087973163e-34
2.003366203e-34
1.922867409e-34
1.846043407e-34
1.772763437e-34
1.702894615e-34
1.636081547e-34
1.572298545e-34
1.511399608e-34
1.453239749e-34
1.397573619e-34
1.344275556e-34
1.293405494e-34
1.244652724e-34
1.197969693e-34
1.153252315e-34
1.110487824e-34
1.069542533e-34
1.030310491e-34
9.927061699e-35
9.566718928e-35
9.222702403e-35
8.891440704e-35
8.573578241e-35
8.268214174e-35
7.9753771e-35
7.6942402e-35
7.424690412e-35
7.165039119e-35
6.915399981e-35
6.675590473e-35
6.444969233e-35
6.222989792e-35
6.010888324e-35
5.805367682e-35
5.60837913e-35
5.418597619e-35
5.23580844e-35
5.060471479e-35
4.89108931e-35
4.727797304e-35
4.571179847e-35
4.420970319e-35
4.275659572e-35
4.135795443e-35
4.000986872e-35
3.870419034e-35
3.744789907e-35
3.623728994e-35
3.507127683e-35
3.394848751e-35
3.286325466e-35
3.181554077e-35
3.081237848e-35
2.984102419e-35
2.890456011e-35
2.800643527e-35
2.713358837e-35
2.629147403e-35
2.547363811e-35
2.468493472e-35
2.392098178e-35
2.318149148e-35
2.247338224e-35
2.178810772e-35
2.112675247e-35
2.048225558e-35
1.986076826e-35
1.925950617e-35
1.868073839e-35
1.812095945e-35
1.758272608e-35
1.705716257e-35
1.654760626e-35
1.605388228e-35
1.557619658e-35
1.51155241e-35
1.467112451e-35
1.424328409e-35
1.383004927e-35
1.342847454e-35
1.303922519e-35
1.266127065e-35
1.229318315e-35
1.193663565e-35
1.159197819e-35
1.125863874e-35
1.093542689e-35
1.061973169e-35
1.031396086e-35
1.001906365e-35
9.73226599e-36
9.454197349e-36
9.185749221e-36
8.924311642e-36
8.669846001e-36
8.426055314e-36
8.188178706e-36
7.959837249e-36
7.737458711e-36
7.52211403e-36
7.313061313e-36
7.109832613e-36
6.914092845e-36
6.724850738e-36
6.538874151e-36
6.359242261e-36
6.184796259e-36
6.015138351e-36
5.849452542e-36
5.689230787e-36
5.532992724e-36
5.382535949e-36
5.235456175e-36
5.093082981e-36
4.955726819e-36
4.822948416e-36
4.691689109e-36
4.563313841e-36
4.438191969e-36
4.318245924e-36
4.203790306e-36
4.089975705e-36
3.980762516e-36
3.873233329e-36
3.769068426e-36
3.667010919e-36
3.567959886e-36
3.472632985e-36
3.380452953e-36
3.291818915e-36
3.203428567e-36
3.118946055e-36
3.036427803e-36
2.955123805e-36
2.875830584e-36
2.799540127e-36
2.725854699e-36
2.653798341e-36
2.582973587e-36
2.514394775e-36
2.447997926e-36
2.383237893e-36
2.321534057e-36
2.260637193e-36
2.200687931e-36
2.142718714e-36
2.086889015e-36
2.032509616e-36
1.979677028e-36
1.927643857e-36
1.877869369e-36
1.83062528e-36
1.784234106e-36
1.739088121e-36
1.69421523e-36
1.650570087e-36
1.606702574e-36
1.564221285e-36
1.522890551e-36
1.48402188e-36
1.445963372e-36
1.408976858e-36
1.3729986e-36
1.339111438e-36
1.305982404e-36
1.271743537e-36
1.238276222e-36
1.206495335e-36
1.17644279e-36
1.147141264e-36
1.117677232e-36
1.089535207e-36
1.061979768e-36
1.034788616e-36
1.007826169e-36
9.82421507e-37
9.580521481e-37
9.338045051e-37
9.09226245e-37
8.845858692e-37
8.606690598e-37
8.38862095e-37
8.174128076e-37
7.963916797e-37
7.76347489e-37
7.566732289e-37
7.375325445e-37
7.19485596e-37
7.01730485e-37
6.837484865e-37
6.662683134e-37
6.501515512e-37
6.331369163e-37
6.172071369e-37
6.020794471e-37
5.87006027e-37
5.727674483e-37
5.586209376e-37
5.444776413e-37
5.309811266e-37
5.174744735e-37
5.038238582e-37
4.912513958e-37
4.781361629e-37
4.649805886e-37
4.523285381e-37
4.412895698e-37
4.302166705e-37
4.18783574e-37
4.083461683e-37
3.979888561e-37
3.87938518e-37
3.79326204e-37
3.706399526e-37
3.621257829e-37
3.535166797e-37
3.447134421e-37
3.349076078e-37
3.257588354e-37
3.181461565e-37
3.097099933e-37
3.022348585e-37
2.949642492e-37
2.87108411e-37
2.79753903e-37
2.731572283e-37
2.666380816e-37
2.599536613e-37
2.541146146e-37
2.468741079e-37
2.407500498e-37
2.347206724e-37
2.277299224e-37
2.20414682e-37
2.136981802e-37
1.669749102e-37
1.184071296e-37
8.102580308e-38
6.321645183e-38
4.344282646e-38
3.233673363e-38
2.218665039e-38
1.089153066e-38
6.419121321e-39
7.075314715e-39
4.699460304e-39
4.893615241e-39
2.900498054e-39
2.802446466e-39
2.279808339e-39
9.087597422e-41
8.311560776e-40
1.983569076e-40
5.480245247e-40
0
2.338699037e-40
1.986494327e-42
4.596599792e-40
3.472444827e-41
1.048035868e-42
0
0
9.524854734e-42
6.918154012e-42
1.161825829e-42
3.208876332e-41
3.860948432e-41
2.874410443e-41
1.028249993e-42
7.662202246e-42
3.494519545e-44
4.521203424e-43
0
0
0
1.329318455e-41
1.228751477e-41
9.97092023e-42
4.447938365e-41
3.792114981e-42
1.003399999e-40
5.562577312e-42
8.416275485e-42
8.514372575e-43
1.112844499e-42
1.802451957e-40
2.884566631e-44
3.295706642e-43
1.110404488e-41
6.981017438e-41
1.433340746e-41
5.179012388e-42
1.049862567e-42
6.885952913e-41
5.545584904e-41
0
6.413427302e-42
6.408960052e-41
1.199210369e-41
0
1.128543227e-41
2.264890055e-42
1.855132991e-43
2.988444522e-42
1.190467957e-41
8.48324644e-42
3.098359416e-42
3.730159629e-41
7.368102678e-43
1.901868535e-41
6.949694532e-42
1.626600781e-41
7.578666008e-42
1.79143086e-41
2.454834904e-41
1.468180171e-41
1.126533549e-41
1.926463449e-41
1.374297295e-41
8.17019411e-43
7.798653894e-42
3.980706246e-42
7.375848008e-45
2.856692432e-44
5.082455308e-42
1.348226879e-41
6.32599937e-42
3.183237976e-42
4.391715158e-42
5.621682043e-43
6.331572554e-45
7.119888031e-43
0
9.409437082e-44
1.078163306e-45
2.443361151e-43
3.474692965e-43
2.918974279e-43
2.8618235e-43
5.846511574e-43
0
1.048592426e-43
2.529477915e-43
6.079953079e-43
8.071210684e-45
3.72127501e-45
7.591704112e-43
4.148810359e-43
4.094863952e-43
6.594681736e-43
1.000470973e-43
6.832176509e-43
0
0
5.521977109e-43
1.592668708e-43
9.707125482e-44
1.746472308e-43
5.825902896e-44
1.490681303e-43
3.008870717e-43
0
0
4.090604177e-44
8.628375229e-44
0
6.586646499e-43
0
5.342430026e-43
3.689317651e-43
6.543173286e-44
9.915165077e-44
0
0
3.31951947e-43
6.229541221e-43
5.274722007e-44
0
4.104427084e-43
2.615658026e-43
1.243606155e-44
2.108519989e-43
6.355194149e-44
9.102584193e-45
0
0
7.057326231e-45
1.903448435e-43
2.043998189e-42
2.159662301e-44
0
0
2.235495095e-42
0
0
0
0
0
1.949705382e-43
1.215894467e-42
1.973802746e-43
2.828747997e-42
0
1.696711444e-43
2.582212873e-43
3.959743802e-43
1.837579475e-43
3.55193225e-43
2.266077174e-43
6.9814839e-43
3.506026075e-43
6.129591793e-43
1.483374396e-43
0
0
0
6.991351889e-43
7.056935184e-43
0
3.79116148e-43
0
5.556016004e-45
1.944350453e-42
9.83695038e-44
6.617616828e-43
4.759104282e-43
3.988413224e-43
7.451559353e-43
5.510135103e-45
9.967749306e-47
7.016139351e-47
0
1.412356308e-45
0
9.655991997e-43
3.105835439e-43
1.441391335e-43
1.99397355e-43
2.329447713e-44
4.946283694e-43
1.438926397e-42
1.08848385e-44
5.572092204e-43
2.263434968e-43
0
0
0
4.948113473e-44
8.397218868e-44
1.04849477e-45
3.994545173e-45
3.599617489e-43
2.881924828e-44
4.463251366e-47
0
0
0
1.558169623e-44
3.535674023e-46
0
0
2.797326484e-44
1.380042954e-43
1.551516799e-43
4.58533474e-43
4.86934532e-43
9.477252799e-45
4.520844718e-45
4.802082031e-44
2.092794978e-43
1.635997717e-45
6.605016129e-43
7.521878578e-43
1.115332189e-42
1.310462952e-45
0
5.021229483e-44
1.042823258e-42
3.104512727e-43
3.738162017e-43
4.601094084e-43
2.711262277e-43
3.758080915e-44
2.728255133e-43
2.764151234e-43
)
;

boundaryField
{
    inlet
    {
        type            fixedValue;
        value           uniform 0;
    }
    outlet
    {
        type            zeroGradient;
    }
    wall
    {
        type            empty;
    }
}


// ************************************************************************* //
