/*--------------------------------*- C++ -*----------------------------------*\
  =========                 |
  \\      /  F ield         | OpenFOAM: The Open Source CFD Toolbox
   \\    /   O peration     | Website:  https://openfoam.org
    \\  /    A nd           | Version:  7
     \\/     M anipulation  |
\*---------------------------------------------------------------------------*/
FoamFile
{
    version     2.0;
    format      ascii;
    class       surfaceScalarField;
    location    "0.000558243009";
    object      phi;
}
// * * * * * * * * * * * * * * * * * * * * * * * * * * * * * * * * * * * * * //

dimensions      [1 0 -1 0 0 0 0];

internalField   nonuniform List<scalar> 
1499
(
6.663412166e-06
6.746042466e-06
6.874995833e-06
7.006758488e-06
7.107713185e-06
7.169635293e-06
7.201240976e-06
7.215154259e-06
7.220977928e-06
7.224122916e-06
7.227063514e-06
7.230707267e-06
7.235276156e-06
7.24072029e-06
7.246895299e-06
7.253625338e-06
7.26072711e-06
7.268019099e-06
7.275325737e-06
7.282479918e-06
7.289324742e-06
7.295714885e-06
7.301517781e-06
7.306614705e-06
7.310901809e-06
7.314291155e-06
7.316711766e-06
7.318110697e-06
7.318454118e-06
7.317728331e-06
7.315940662e-06
7.313120097e-06
7.309317544e-06
7.304605588e-06
7.299077629e-06
7.292846336e-06
7.286041376e-06
7.27880645e-06
7.271295719e-06
7.263669752e-06
7.256091167e-06
7.248720169e-06
7.24171019e-06
7.235203837e-06
7.229329316e-06
7.224197477e-06
7.21989958e-06
7.216505815e-06
7.214064588e-06
7.212602529e-06
7.21212515e-06
7.21261805e-06
7.21404857e-06
7.216367779e-06
7.219512683e-06
7.223408575e-06
7.227971426e-06
7.23311026e-06
7.238729461e-06
7.244730955e-06
7.25101625e-06
7.257488276e-06
7.264053034e-06
7.270620991e-06
7.277108238e-06
7.283437365e-06
7.289538066e-06
7.295347469e-06
7.300810204e-06
7.305878234e-06
7.310510491e-06
7.314672361e-06
7.318335079e-06
7.32147508e-06
7.324073382e-06
7.326115034e-06
7.327588685e-06
7.328486296e-06
7.328803006e-06
7.328537164e-06
7.327690499e-06
7.326268399e-06
7.324280279e-06
7.321739976e-06
7.318666139e-06
7.315082567e-06
7.311018456e-06
7.306508518e-06
7.301592967e-06
7.296317329e-06
7.290732097e-06
7.284892219e-06
7.278856445e-06
7.27268654e-06
7.266446398e-06
7.260201093e-06
7.25401588e-06
7.247955209e-06
7.242081755e-06
7.236455518e-06
7.231133004e-06
7.226166505e-06
7.221603509e-06
7.217486219e-06
7.213851204e-06
7.210729157e-06
7.208144773e-06
7.206116698e-06
7.204657575e-06
7.203774136e-06
7.203467352e-06
7.20373262e-06
7.204559983e-06
7.205934378e-06
7.207835921e-06
7.210240219e-06
7.21311872e-06
7.216439105e-06
7.22016572e-06
7.224260049e-06
7.228681223e-06
7.233386562e-06
7.238332134e-06
7.243473327e-06
7.248765415e-06
7.254164105e-06
7.259626058e-06
7.265109371e-06
7.270574008e-06
7.275982185e-06
7.281298701e-06
7.286491213e-06
7.291530476e-06
7.296390517e-06
7.301048792e-06
7.305486288e-06
7.309687594e-06
7.313640936e-06
7.317338162e-06
7.320774689e-06
7.323949388e-06
7.326864404e-06
7.32952491e-06
7.331938784e-06
7.334116205e-06
7.336069176e-06
7.337810983e-06
7.339355592e-06
7.34071702e-06
7.341908692e-06
7.342942816e-06
7.343829802e-06
7.344577769e-06
7.345192145e-06
7.345675412e-06
7.346026987e-06
7.346243272e-06
7.346317862e-06
7.346241901e-06
7.34600458e-06
7.345593739e-06
7.344996543e-06
7.344200195e-06
7.343192644e-06
7.34196324e-06
7.340503313e-06
7.338806625e-06
7.336869694e-06
7.334691954e-06
7.332275768e-06
7.329626299e-06
7.326751247e-06
7.323660508e-06
7.320365761e-06
7.316880038e-06
7.313217321e-06
7.309392176e-06
7.305419476e-06
7.301314213e-06
7.297091411e-06
7.292766144e-06
7.28835362e-06
7.283869337e-06
7.279329255e-06
7.274749975e-06
7.270148875e-06
7.26554419e-06
7.260955007e-06
7.256401171e-06
7.251903095e-06
7.247481471e-06
7.243156917e-06
7.238949556e-06
7.234878563e-06
7.23096171e-06
7.227214921e-06
7.223651879e-06
7.220283706e-06
7.217118734e-06
7.214162394e-06
7.211417242e-06
7.208883118e-06
7.206557456e-06
7.204435727e-06
7.202511995e-06
7.20077954e-06
7.19923151e-06
7.197861521e-06
7.196664135e-06
7.195635145e-06
7.194771596e-06
7.194071491e-06
7.193533193e-06
7.193154531e-06
7.192931718e-06
7.192858209e-06
7.192923693e-06
7.193113432e-06
7.193408174e-06
7.193784851e-06
7.194218191e-06
7.194683307e-06
7.195159175e-06
7.195632777e-06
7.196103525e-06
7.196587431e-06
7.197120388e-06
7.197759873e-06
7.198584388e-06
7.199690092e-06
7.20118427e-06
7.203175593e-06
7.205761504e-06
7.20901346e-06
7.212961256e-06
7.21757795e-06
7.222767309e-06
7.22835575e-06
7.234090793e-06
7.239647718e-06
7.244645661e-06
7.248673638e-06
7.251326062e-06
7.252246246e-06
7.251175295e-06
7.248002521e-06
7.242813238e-06
7.235926643e-06
7.227926007e-06
7.219688593e-06
7.219175912e-06
7.218667579e-06
7.218163281e-06
7.217663309e-06
7.217168038e-06
7.216677854e-06
7.216193137e-06
7.215714265e-06
7.215241618e-06
7.214775577e-06
7.214316526e-06
7.213864853e-06
7.213420949e-06
7.212985211e-06
7.212558037e-06
7.212139831e-06
7.211731e-06
7.211331953e-06
7.210943106e-06
7.210564873e-06
7.210197675e-06
7.209841934e-06
7.209498076e-06
7.209166528e-06
7.208847723e-06
7.208542091e-06
7.20825007e-06
7.207972097e-06
7.207708611e-06
7.207460054e-06
7.20722687e-06
7.207009503e-06
7.206808401e-06
7.20662401e-06
7.206456781e-06
7.206307163e-06
7.206175607e-06
7.206062565e-06
7.20596849e-06
7.205893833e-06
7.205839048e-06
7.205804588e-06
7.205790904e-06
7.205798451e-06
7.20582768e-06
7.205879041e-06
7.205952986e-06
7.206049964e-06
7.206170422e-06
7.206314807e-06
7.206483564e-06
7.206677137e-06
7.206895965e-06
7.207140489e-06
7.207411143e-06
7.207708362e-06
7.208032576e-06
7.208384213e-06
7.208763696e-06
7.209171447e-06
7.209607882e-06
7.210073413e-06
7.210568449e-06
7.211093394e-06
7.211648647e-06
7.212234602e-06
7.212851649e-06
7.21350017e-06
7.214180544e-06
7.214893143e-06
7.215638331e-06
7.216416469e-06
7.21722791e-06
7.218072998e-06
7.218952072e-06
7.219865463e-06
7.220813494e-06
7.22179648e-06
7.222814729e-06
7.22386854e-06
7.224958201e-06
7.226083993e-06
7.227246189e-06
7.22844505e-06
7.229680828e-06
7.230953764e-06
7.232264091e-06
7.23361203e-06
7.234997791e-06
7.236421572e-06
7.237883562e-06
7.239383935e-06
7.240922856e-06
7.242500476e-06
7.244116935e-06
7.245772357e-06
7.247466858e-06
7.249200535e-06
7.250973476e-06
7.252785754e-06
7.254637425e-06
7.256528534e-06
7.25845911e-06
7.260429167e-06
7.262438704e-06
7.264487705e-06
7.266576137e-06
7.268703952e-06
7.270871086e-06
7.273077457e-06
7.275322968e-06
7.277607505e-06
7.279930934e-06
7.282293107e-06
7.284693855e-06
7.287132995e-06
7.289610323e-06
7.292125616e-06
7.294678633e-06
7.297269116e-06
7.299896785e-06
7.302561342e-06
7.30526247e-06
7.30799983e-06
7.310773066e-06
7.313581798e-06
7.316425629e-06
7.31930414e-06
7.322216891e-06
7.325163421e-06
7.328143247e-06
7.331155868e-06
7.334200756e-06
7.337277365e-06
7.340385127e-06
7.34352345e-06
7.346691722e-06
7.349889307e-06
7.353115546e-06
7.356369761e-06
7.359651245e-06
7.362959274e-06
7.366293098e-06
7.369651945e-06
7.373035017e-06
7.376441497e-06
7.379870542e-06
7.383321285e-06
7.386792838e-06
7.390284285e-06
7.393794691e-06
7.397323095e-06
7.400868511e-06
7.404429932e-06
7.408006325e-06
7.411596633e-06
7.415199778e-06
7.418814654e-06
7.422440134e-06
7.426075066e-06
7.429718274e-06
7.433368559e-06
7.437024699e-06
7.440685445e-06
7.444349528e-06
7.448015653e-06
7.451682504e-06
7.45534874e-06
7.459012995e-06
7.462673884e-06
7.466329996e-06
7.469979898e-06
7.473622134e-06
7.477255226e-06
7.480877674e-06
7.484487953e-06
7.488084521e-06
7.49166581e-06
7.495230231e-06
7.498776176e-06
7.502302013e-06
7.505806092e-06
7.50928674e-06
7.512742265e-06
7.516170955e-06
7.519571078e-06
7.522940882e-06
7.526278598e-06
7.529582435e-06
7.532850587e-06
7.536081228e-06
7.539272515e-06
7.542422589e-06
7.545529571e-06
7.548591568e-06
7.551606672e-06
7.554572957e-06
7.557488483e-06
7.560351295e-06
7.563159426e-06
7.565910892e-06
7.568603698e-06
7.571235836e-06
7.573805286e-06
7.576310016e-06
7.578747984e-06
7.581117137e-06
7.583415412e-06
7.585640736e-06
7.58779103e-06
7.589864205e-06
7.591858164e-06
7.593770805e-06
7.595600019e-06
7.597343693e-06
7.598999706e-06
7.600565937e-06
7.602040259e-06
7.603420543e-06
7.604704658e-06
7.605890473e-06
7.606975854e-06
7.607958672e-06
7.608836793e-06
7.60960809e-06
7.610270437e-06
7.61082171e-06
7.61125979e-06
7.611582565e-06
7.611787927e-06
7.611873775e-06
7.611838015e-06
7.611678564e-06
7.611393345e-06
7.610980293e-06
7.610437353e-06
7.609762484e-06
7.608953654e-06
7.608008847e-06
7.606926063e-06
7.605703314e-06
7.604338629e-06
7.602830057e-06
7.601175661e-06
7.599373526e-06
7.597421756e-06
7.595318475e-06
7.593061828e-06
7.590649985e-06
7.588081137e-06
7.5853535e-06
7.582465316e-06
7.579414851e-06
7.576200401e-06
7.572820287e-06
7.569272859e-06
7.565556496e-06
7.56166961e-06
7.557610642e-06
7.553378063e-06
7.548970381e-06
7.544386134e-06
7.539819145e-06
7.535420219e-06
7.531156363e-06
7.526991575e-06
7.522885123e-06
7.518803647e-06
7.514713075e-06
7.510578644e-06
7.506364928e-06
7.502035853e-06
7.497554724e-06
7.492884253e-06
7.487986582e-06
7.482823315e-06
7.477355556e-06
7.471543143e-06
7.465335033e-06
7.458688831e-06
7.45156147e-06
7.443909204e-06
7.435689971e-06
7.427086199e-06
7.418299666e-06
7.409330379e-06
7.400178434e-06
7.390844016e-06
7.3813274e-06
7.371628953e-06
7.361749132e-06
7.351688487e-06
7.341447663e-06
7.331027396e-06
7.32042852e-06
7.309651962e-06
7.298698748e-06
7.28757e-06
7.276266938e-06
7.26479088e-06
7.253143247e-06
7.241325558e-06
7.229339433e-06
7.217186597e-06
7.204868875e-06
7.192388197e-06
7.179746598e-06
7.166946217e-06
7.1539893e-06
7.140878199e-06
7.127615373e-06
7.11420339e-06
7.100644926e-06
7.086942766e-06
7.073099805e-06
7.05911905e-06
7.045003615e-06
7.030756731e-06
7.016381736e-06
7.001882083e-06
6.987261337e-06
6.972523177e-06
6.957671396e-06
6.9427099e-06
6.927642709e-06
6.912473959e-06
6.8972079e-06
6.881848896e-06
6.866401429e-06
6.850870092e-06
6.835259598e-06
6.819574771e-06
6.803820553e-06
6.788001999e-06
6.772124282e-06
6.756192688e-06
6.740212616e-06
6.724189581e-06
6.708129211e-06
6.69203725e-06
6.675919549e-06
6.659782078e-06
6.643630912e-06
6.627472242e-06
6.611312366e-06
6.595157691e-06
6.579014733e-06
6.562890115e-06
6.546790563e-06
6.530722909e-06
6.514694088e-06
6.498711135e-06
6.482781186e-06
6.466911471e-06
6.451109319e-06
6.435382149e-06
6.419737475e-06
6.404182894e-06
6.388726092e-06
6.373374837e-06
6.358136975e-06
6.34302043e-06
6.328033197e-06
6.313183339e-06
6.298478984e-06
6.283928319e-06
6.269539588e-06
6.255321083e-06
6.241281141e-06
6.227428136e-06
6.213770478e-06
6.200316599e-06
6.187074954e-06
6.174054006e-06
6.161262225e-06
6.148708076e-06
6.136400011e-06
6.124346461e-06
6.112555828e-06
6.101036471e-06
6.089796704e-06
6.07884478e-06
6.068188882e-06
6.057837117e-06
6.047797504e-06
6.038077966e-06
6.028686323e-06
6.019630284e-06
6.010917443e-06
6.00255528e-06
5.994551156e-06
5.98691232e-06
5.97964592e-06
5.972759014e-06
5.966258596e-06
5.960151628e-06
5.95444508e-06
5.949145989e-06
5.944261529e-06
5.939799104e-06
5.935766466e-06
5.932171851e-06
5.929024156e-06
5.926333147e-06
5.924109715e-06
5.922366172e-06
5.921116608e-06
5.920377275e-06
5.920167141e-06
5.920508361e-06
5.921426924e-06
5.92295333e-06
5.925123351e-06
5.927978957e-06
5.931568816e-06
5.93594949e-06
5.941186175e-06
5.947353487e-06
5.954536123e-06
5.962829344e-06
5.972339186e-06
5.983182323e-06
5.995485492e-06
6.009384398e-06
6.025022012e-06
6.042546242e-06
6.06210693e-06
6.083852229e-06
6.107924323e-06
6.134455118e-06
6.163561186e-06
6.195339062e-06
6.229860749e-06
6.267169775e-06
6.30727809e-06
6.350163967e-06
6.39577108e-06
6.444008766e-06
6.494753513e-06
6.547851354e-06
6.603121334e-06
6.660359737e-06
6.719345538e-06
6.779847971e-06
6.841637582e-06
6.90450161e-06
6.968258916e-06
7.033044081e-06
7.098442624e-06
7.165255279e-06
7.231366243e-06
7.295097844e-06
7.354833038e-06
7.414721022e-06
7.474389258e-06
7.5334171e-06
7.591508444e-06
7.648501963e-06
7.704128485e-06
7.758488927e-06
7.811379655e-06
7.862398038e-06
7.911282538e-06
7.956225221e-06
8.002060224e-06
8.044216908e-06
8.08348911e-06
8.119252734e-06
8.154880429e-06
8.186869485e-06
8.215373801e-06
8.239650211e-06
8.266307002e-06
8.289198767e-06
8.30922662e-06
8.326850393e-06
8.342381523e-06
8.356060475e-06
8.367994931e-06
8.379654627e-06
8.38986879e-06
8.39896623e-06
8.40703401e-06
8.414146796e-06
8.420326865e-06
8.425558567e-06
8.429787355e-06
8.433700062e-06
8.437323094e-06
8.440592192e-06
8.443498899e-06
8.446073426e-06
8.448356992e-06
8.450380426e-06
8.45217954e-06
8.453790571e-06
8.455236251e-06
8.45633584e-06
8.457111511e-06
8.457736629e-06
8.45820372e-06
8.458499112e-06
8.458606403e-06
8.458514445e-06
8.45821912e-06
8.457703357e-06
8.456988598e-06
8.456080159e-06
8.454984348e-06
8.453707086e-06
8.452253706e-06
8.450628789e-06
8.448836165e-06
8.446878967e-06
8.444759728e-06
8.44248048e-06
8.44004286e-06
8.437448197e-06
8.434697581e-06
8.431791932e-06
8.42873203e-06
8.425518592e-06
8.422152263e-06
8.41863365e-06
8.414963333e-06
8.411141881e-06
8.407169857e-06
8.403047824e-06
8.398776346e-06
8.394355993e-06
8.389787343e-06
8.385070979e-06
8.380207491e-06
8.375197478e-06
8.370041548e-06
8.364740315e-06
8.3592944e-06
8.353704432e-06
8.347971049e-06
8.342094894e-06
8.336076617e-06
8.329916876e-06
8.323616337e-06
8.317175668e-06
8.310595549e-06
8.303876662e-06
8.297019697e-06
8.290025352e-06
8.282894328e-06
8.275627333e-06
8.268225083e-06
8.260688297e-06
8.253017701e-06
8.245214027e-06
8.237278012e-06
8.229210401e-06
8.221011941e-06
8.212683387e-06
8.204225499e-06
8.195639043e-06
8.18692479e-06
8.178083516e-06
8.169116003e-06
8.160023038e-06
8.150805414e-06
8.141463929e-06
8.131999386e-06
8.122412594e-06
8.112704366e-06
8.102875521e-06
8.092926884e-06
8.082859282e-06
8.072673551e-06
8.062370529e-06
8.05195106e-06
8.041415993e-06
8.030766181e-06
8.020002482e-06
8.00912576e-06
7.998136881e-06
7.987036718e-06
7.975826147e-06
7.964506049e-06
7.953077309e-06
7.941540816e-06
7.929897462e-06
7.918148147e-06
7.90629377e-06
7.894335237e-06
7.882273456e-06
7.870109341e-06
7.85784382e-06
7.8454778e-06
7.833012205e-06
7.82044796e-06
7.807785997e-06
7.795027246e-06
7.782172645e-06
7.769223132e-06
7.756179648e-06
7.743043139e-06
7.729814551e-06
7.716494834e-06
7.703084941e-06
7.689585826e-06
7.675998448e-06
7.662323764e-06
7.648562738e-06
7.634716333e-06
7.620785515e-06
7.606771251e-06
7.592674513e-06
7.578496271e-06
7.5642375e-06
7.549899174e-06
7.53548227e-06
7.520987767e-06
7.506416644e-06
7.491769884e-06
7.477048468e-06
7.462253382e-06
7.447385609e-06
7.432446137e-06
7.417435954e-06
7.402356047e-06
7.387207408e-06
7.371991027e-06
7.356707895e-06
7.341359005e-06
7.32594535e-06
7.310467925e-06
7.294927724e-06
7.279325744e-06
7.26366298e-06
7.247940429e-06
7.232159089e-06
7.216319957e-06
7.200424032e-06
7.184472313e-06
7.168465799e-06
7.15240549e-06
7.136292385e-06
7.120127485e-06
7.10391179e-06
7.087646301e-06
7.071332019e-06
7.054969945e-06
7.038561081e-06
7.022106426e-06
7.005606984e-06
6.989063754e-06
6.972477739e-06
6.955849941e-06
6.939181359e-06
6.922472997e-06
6.905725854e-06
6.888940933e-06
6.872119233e-06
6.855261757e-06
6.838369504e-06
6.821443475e-06
6.80448467e-06
6.787494089e-06
6.770472731e-06
6.753421597e-06
6.736341685e-06
6.719233994e-06
6.702099522e-06
6.684939267e-06
6.667754227e-06
6.6505454e-06
6.63331378e-06
6.616060367e-06
6.598786154e-06
6.581492137e-06
6.564179311e-06
6.546848672e-06
6.529501211e-06
6.512137923e-06
6.4947598e-06
6.477367834e-06
6.459963018e-06
6.44254634e-06
6.425118793e-06
6.407681365e-06
6.390235045e-06
6.372780822e-06
6.355319682e-06
6.337852613e-06
6.320380601e-06
6.30290463e-06
6.285425685e-06
6.267944751e-06
6.250462809e-06
6.232980842e-06
6.215499831e-06
6.198020756e-06
6.180544596e-06
6.163072331e-06
6.145604937e-06
6.128143391e-06
6.110688669e-06
6.093241746e-06
6.075803596e-06
6.05837519e-06
6.040957501e-06
6.023551499e-06
6.006158154e-06
5.988778435e-06
5.971413307e-06
5.954063739e-06
5.936730694e-06
5.919415136e-06
5.902118029e-06
5.884840333e-06
5.867583009e-06
5.850347015e-06
5.83313331e-06
5.815942849e-06
5.798776587e-06
5.781635479e-06
5.764520476e-06
5.747432529e-06
5.730372587e-06
5.713341599e-06
5.696340511e-06
5.679370267e-06
5.662431811e-06
5.645526085e-06
5.628654029e-06
5.611816582e-06
5.595014681e-06
5.578249261e-06
5.561521256e-06
5.544831596e-06
5.528181214e-06
5.511571037e-06
5.495001991e-06
5.478475001e-06
5.46199099e-06
5.445550879e-06
5.429155587e-06
5.41280603e-06
5.396503125e-06
5.380247783e-06
5.364040915e-06
5.347883431e-06
5.331776237e-06
5.315720237e-06
5.299716333e-06
5.283765427e-06
5.267868415e-06
5.252026192e-06
5.236239653e-06
5.220509687e-06
5.204837183e-06
5.189223027e-06
5.173668102e-06
5.158173289e-06
5.142739466e-06
5.127367509e-06
5.11205829e-06
5.096812681e-06
5.081631548e-06
5.066515756e-06
5.051466168e-06
5.036483642e-06
5.021569035e-06
5.0067232e-06
4.991946987e-06
4.977241244e-06
4.962606815e-06
4.948044541e-06
4.933555259e-06
4.919139806e-06
4.904799012e-06
4.890533705e-06
4.876344711e-06
4.86223285e-06
4.848198943e-06
4.834243801e-06
4.820368238e-06
4.806573061e-06
4.792859073e-06
4.779227074e-06
4.765677862e-06
4.75221223e-06
4.738830966e-06
4.725534855e-06
4.712324679e-06
4.699201215e-06
4.686165236e-06
4.673217512e-06
4.660358807e-06
4.647589884e-06
4.634911498e-06
4.622324401e-06
4.609829343e-06
4.597427067e-06
4.585118312e-06
4.572903813e-06
4.5607843e-06
4.5487605e-06
4.536833133e-06
4.525002916e-06
4.51327056e-06
4.501636773e-06
4.490102256e-06
4.478667706e-06
4.467333815e-06
4.45610126e-06
4.444970733e-06
4.433942912e-06
4.423018467e-06
4.412198065e-06
4.401482368e-06
4.39087203e-06
4.380367701e-06
4.369970028e-06
4.359679648e-06
4.349497195e-06
4.339423297e-06
4.329458575e-06
4.319603646e-06
4.309859121e-06
4.300225603e-06
4.290703691e-06
4.281293978e-06
4.271997049e-06
4.262813485e-06
4.253743859e-06
4.24478874e-06
4.235948687e-06
4.227224257e-06
4.218615997e-06
4.210124448e-06
4.201750147e-06
4.19349362e-06
4.185355391e-06
4.177335974e-06
4.169435877e-06
4.1616556e-06
4.153995639e-06
4.146456479e-06
4.139038602e-06
4.131742479e-06
4.124568576e-06
4.117517351e-06
4.110589255e-06
4.103784732e-06
4.097104216e-06
4.090548137e-06
4.084116914e-06
4.077810962e-06
4.071630684e-06
4.065576478e-06
4.059648735e-06
4.053847834e-06
4.04817415e-06
4.042628049e-06
4.037209886e-06
4.031920012e-06
4.026758767e-06
4.021726483e-06
4.016823485e-06
4.012050089e-06
4.007406601e-06
4.002893319e-06
3.998510535e-06
3.994258528e-06
3.990137572e-06
3.986147929e-06
3.982289856e-06
3.978563597e-06
3.974969389e-06
3.97150746e-06
3.968178029e-06
3.964981305e-06
3.961917489e-06
3.958986771e-06
3.956189333e-06
3.953525347e-06
3.950994976e-06
3.948598373e-06
3.946335683e-06
3.944207038e-06
3.942212564e-06
3.940352375e-06
3.938626576e-06
3.937035263e-06
3.93557852e-06
3.934256423e-06
3.933069037e-06
3.932016418e-06
3.931098611e-06
3.930315652e-06
3.929667564e-06
3.929154364e-06
3.928776056e-06
3.928532634e-06
3.928424082e-06
3.928450374e-06
3.928611474e-06
3.928907333e-06
3.929337896e-06
3.929903092e-06
3.930602845e-06
3.931437064e-06
3.932405649e-06
3.933508491e-06
3.934745468e-06
3.936116448e-06
3.937621289e-06
3.939259837e-06
3.941031928e-06
3.942937388e-06
3.94497603e-06
3.947147657e-06
3.949452064e-06
3.95188903e-06
3.954458327e-06
3.957159715e-06
3.959992942e-06
3.962957747e-06
3.966053856e-06
3.969280985e-06
3.972638839e-06
3.976127113e-06
3.979745489e-06
3.98349364e-06
3.987371225e-06
3.991377896e-06
3.995513291e-06
3.999777038e-06
4.004168754e-06
4.008688044e-06
4.013334505e-06
4.018107719e-06
4.02300726e-06
4.02803269e-06
4.033183559e-06
4.038459407e-06
4.043859764e-06
4.049384148e-06
4.055032065e-06
4.060803012e-06
4.066696475e-06
4.072711928e-06
4.078848835e-06
4.085106648e-06
4.09148481e-06
4.097982752e-06
4.104599894e-06
4.111335647e-06
4.118189409e-06
4.125160569e-06
4.132248504e-06
4.139452582e-06
4.14677216e-06
4.154206583e-06
4.161755188e-06
4.169417298e-06
4.17719223e-06
4.185079287e-06
4.193077763e-06
4.201186942e-06
4.209406098e-06
4.217734493e-06
4.226171381e-06
4.234716004e-06
4.243367596e-06
4.25212538e-06
4.26098858e-06
4.269956388e-06
4.279027996e-06
4.288202588e-06
4.297479337e-06
4.306857405e-06
4.316335943e-06
4.325914093e-06
4.335590982e-06
4.345365727e-06
4.355237429e-06
4.365205175e-06
4.375268035e-06
4.385425059e-06
4.395675277e-06
4.406017692e-06
4.416451292e-06
4.426975026e-06
4.437587849e-06
4.448288669e-06
4.459076383e-06
4.469950091e-06
4.480908699e-06
4.491951102e-06
4.503076853e-06
4.514286981e-06
4.525579613e-06
4.536925622e-06
4.712926749e-06
4.89166434e-06
5.070637637e-06
5.247942284e-06
5.421688265e-06
5.590195049e-06
5.751965595e-06
5.905687096e-06
6.05023278e-06
6.184661228e-06
6.308213973e-06
6.420311818e-06
6.520549473e-06
6.608688838e-06
6.684650903e-06
6.748506524e-06
6.80046599e-06
6.840867677e-06
6.870165862e-06
6.888917908e-06
6.897770909e-06
6.897448047e-06
6.888734756e-06
6.872464903e-06
6.849507122e-06
6.820751484e-06
6.78709661e-06
6.749437427e-06
6.708653599e-06
6.665598885e-06
6.621091338e-06
6.57590465e-06
6.530760483e-06
6.486322046e-06
6.44318878e-06
6.401892301e-06
6.362893489e-06
6.32658082e-06
6.293269805e-06
6.263203549e-06
6.236554347e-06
6.213426254e-06
6.193858521e-06
6.177829819e-06
6.165263139e-06
6.156031258e-06
6.149962648e-06
6.146847722e-06
6.146445287e-06
6.148489094e-06
6.152694367e-06
6.158764203e-06
6.166395745e-06
6.17528602e-06
6.185137389e-06
6.195662498e-06
6.2065887e-06
6.217661886e-06
6.228649686e-06
6.239344037e-06
6.249563092e-06
6.25915247e-06
6.267985894e-06
6.275965209e-06
6.283019842e-06
6.289105743e-06
6.294203868e-06
6.29831826e-06
6.301473804e-06
6.303713717e-06
6.305096855e-06
6.3056949e-06
6.3055895e-06
6.304869438e-06
6.303627875e-06
6.301959743e-06
6.299959319e-06
6.297718039e-06
6.295322574e-06
6.292853201e-06
6.290382478e-06
6.287974241e-06
6.285682906e-06
6.283553087e-06
6.281619501e-06
6.279907138e-06
6.278431674e-06
6.277200092e-06
6.276211478e-06
6.275457947e-06
6.274925673e-06
6.274595976e-06
6.274446433e-06
6.274451979e-06
6.274585969e-06
6.274821166e-06
6.275130644e-06
6.27548858e-06
6.27587092e-06
6.27625592e-06
6.276624549e-06
6.276960759e-06
6.277251629e-06
6.277487388e-06
6.27766133e-06
6.277769641e-06
6.27781114e-06
6.277786966e-06
6.277700222e-06
6.277555592e-06
6.277358946e-06
6.277116956e-06
6.276836729e-06
6.276525466e-06
6.276190167e-06
6.275837379e-06
6.275472988e-06
6.275102075e-06
6.274728811e-06
6.274356411e-06
6.273987125e-06
6.273622276e-06
6.273262329e-06
6.272906985e-06
6.272555299e-06
6.272205809e-06
6.271856668e-06
6.271505781e-06
6.271150934e-06
6.270789911e-06
6.2704206e-06
6.270041083e-06
6.269649705e-06
6.269245127e-06
6.268826361e-06
6.268392788e-06
6.267944158e-06
6.267480581e-06
6.267002505e-06
6.266510681e-06
6.266006134e-06
6.265490114e-06
6.264964059e-06
6.264429551e-06
6.263888279e-06
6.263341998e-06
6.262792501e-06
6.262241586e-06
6.261691035e-06
6.261142595e-06
6.260597963e-06
6.260058776e-06
6.259526601e-06
6.259002936e-06
6.258489206e-06
6.257986761e-06
6.257496882e-06
6.257020779e-06
6.256559594e-06
6.256114406e-06
6.255686231e-06
6.255276024e-06
6.254884678e-06
6.254513026e-06
6.254161836e-06
6.253831814e-06
6.253523594e-06
6.25323774e-06
6.252974734e-06
6.252734976e-06
6.252518772e-06
6.252326331e-06
6.252157758e-06
6.252013042e-06
6.251892058e-06
6.251794556e-06
6.251720158e-06
6.251668358e-06
6.25163852e-06
6.251629877e-06
6.251641541e-06
6.251672503e-06
6.251721645e-06
6.251787747e-06
6.251869504e-06
6.251965539e-06
6.252074419e-06
6.252194673e-06
6.252324813e-06
6.25246335e-06
6.252608819e-06
6.252759797e-06
6.252914925e-06
6.253072925e-06
6.253232623e-06
6.253392963e-06
6.253553029e-06
6.253712057e-06
6.253869448e-06
6.254024783e-06
6.254177832e-06
6.254328561e-06
6.254477138e-06
6.254623935e-06
6.25476953e-06
6.2549147e-06
6.255060418e-06
6.255207843e-06
6.255358306e-06
6.255513296e-06
6.255674436e-06
6.255843465e-06
6.256022207e-06
6.256212548e-06
6.256416399e-06
6.256635666e-06
6.256872213e-06
6.257127828e-06
6.257404189e-06
6.257702821e-06
6.258025072e-06
6.258372071e-06
6.258744706e-06
6.259143589e-06
6.259569041e-06
6.260021068e-06
6.260499348e-06
6.26100322e-06
6.261531683e-06
6.262083392e-06
6.262656664e-06
6.26324949e-06
6.263859546e-06
6.264484211e-06
6.265120592e-06
6.265765543e-06
6.266415697e-06
6.267067491e-06
6.267717198e-06
6.26836096e-06
6.268994814e-06
6.269614727e-06
6.270216624e-06
6.270796425e-06
6.271350085e-06
6.271873643e-06
6.272363314e-06
6.27281562e-06
6.273227706e-06
)
;

boundaryField
{
    inlet
    {
        type            calculated;
        value           uniform -6.641622516e-06;
    }
    outlet
    {
        type            calculated;
        value           uniform 6.273597899e-06;
    }
    wall
    {
        type            empty;
        value           nonuniform 0();
    }
}


// ************************************************************************* //
