/*--------------------------------*- C++ -*----------------------------------*\
  =========                 |
  \\      /  F ield         | OpenFOAM: The Open Source CFD Toolbox
   \\    /   O peration     | Website:  https://openfoam.org
    \\  /    A nd           | Version:  7
     \\/     M anipulation  |
\*---------------------------------------------------------------------------*/
FoamFile
{
    version     2.0;
    format      ascii;
    class       surfaceScalarField;
    location    "0.000558243009";
    object      phi_0;
}
// * * * * * * * * * * * * * * * * * * * * * * * * * * * * * * * * * * * * * //

dimensions      [1 0 -1 0 0 0 0];

internalField   nonuniform List<scalar> 
1499
(
6.661590089e-06
6.742429309e-06
6.86958037e-06
6.999579837e-06
7.098875274e-06
7.159362838e-06
7.189796067e-06
7.20285866e-06
7.208147466e-06
7.211101414e-06
7.214182583e-06
7.21830437e-06
7.223668675e-06
7.230205676e-06
7.237737706e-06
7.246048718e-06
7.254909033e-06
7.264086133e-06
7.273351276e-06
7.282484134e-06
7.291276574e-06
7.29953586e-06
7.307087341e-06
7.313776637e-06
7.319471349e-06
7.324062303e-06
7.327464405e-06
7.329617145e-06
7.330484831e-06
7.330056593e-06
7.328346183e-06
7.325391566e-06
7.321254284e-06
7.316018505e-06
7.309789725e-06
7.302693037e-06
7.294870914e-06
7.286480494e-06
7.277690375e-06
7.268676968e-06
7.259620504e-06
7.250700836e-06
7.242093171e-06
7.233963925e-06
7.226466843e-06
7.219739576e-06
7.213900797e-06
7.209048002e-06
7.205256001e-06
7.202576151e-06
7.201036279e-06
7.200641257e-06
7.201374133e-06
7.203197735e-06
7.206056632e-06
7.20987937e-06
7.214580875e-06
7.220064953e-06
7.226226815e-06
7.232955567e-06
7.240136624e-06
7.24765401e-06
7.255392507e-06
7.263239613e-06
7.271087304e-06
7.278833546e-06
7.286383541e-06
7.293650699e-06
7.300557303e-06
7.30703489e-06
7.313024335e-06
7.318475685e-06
7.323347763e-06
7.327607603e-06
7.33122976e-06
7.334195569e-06
7.3364924e-06
7.338112969e-06
7.339054744e-06
7.339319485e-06
7.338912924e-06
7.337844608e-06
7.336127859e-06
7.333779871e-06
7.330821875e-06
7.327279359e-06
7.323182285e-06
7.31856528e-06
7.313467756e-06
7.307933927e-06
7.30201271e-06
7.29575749e-06
7.289225741e-06
7.282478512e-06
7.275579783e-06
7.268595716e-06
7.261593809e-06
7.254642e-06
7.247807732e-06
7.241157028e-06
7.234753584e-06
7.228657935e-06
7.222926686e-06
7.217611862e-06
7.212760353e-06
7.208413489e-06
7.204606732e-06
7.201369473e-06
7.198724941e-06
7.196690192e-06
7.195276175e-06
7.194487854e-06
7.194324377e-06
7.194779276e-06
7.1958407e-06
7.197491665e-06
7.199710339e-06
7.202470343e-06
7.205741095e-06
7.209488183e-06
7.213673781e-06
7.218257101e-06
7.22319489e-06
7.228441952e-06
7.233951703e-06
7.23967673e-06
7.24556936e-06
7.25158221e-06
7.257668717e-06
7.263783627e-06
7.269883443e-06
7.275926825e-06
7.281874933e-06
7.287691721e-06
7.293344187e-06
7.298802572e-06
7.30404053e-06
7.309035254e-06
7.313767579e-06
7.318222053e-06
7.322386975e-06
7.326254393e-06
7.329820067e-06
7.333083367e-06
7.336047114e-06
7.338717354e-06
7.341103045e-06
7.343215668e-06
7.345068754e-06
7.346677344e-06
7.348057383e-06
7.349225072e-06
7.350196207e-06
7.350985524e-06
7.351606088e-06
7.352068752e-06
7.352381721e-06
7.35255024e-06
7.352576439e-06
7.352459329e-06
7.35219497e-06
7.351776797e-06
7.351196088e-06
7.350442548e-06
7.349504982e-06
7.348372016e-06
7.347032809e-06
7.345477747e-06
7.343699034e-06
7.341691191e-06
7.339451394e-06
7.336979675e-06
7.334278941e-06
7.331354855e-06
7.328215573e-06
7.32487138e-06
7.321334254e-06
7.317617402e-06
7.313734812e-06
7.309700853e-06
7.305529962e-06
7.30123643e-06
7.296834312e-06
7.292337439e-06
7.287759539e-06
7.283114429e-06
7.278416251e-06
7.273679725e-06
7.26892037e-06
7.264154675e-06
7.25940019e-06
7.254675511e-06
7.250000174e-06
7.245394432e-06
7.240878938e-06
7.236474356e-06
7.232200897e-06
7.228077832e-06
7.224122979e-06
7.220352214e-06
7.216779015e-06
7.213414082e-06
7.210265055e-06
7.207336364e-06
7.204629234e-06
7.202141874e-06
7.199869863e-06
7.197806725e-06
7.195944677e-06
7.194275498e-06
7.192791448e-06
7.191486142e-06
7.190355248e-06
7.189396901e-06
7.188611701e-06
7.188002217e-06
7.187571945e-06
7.187323756e-06
7.187257934e-06
7.187370004e-06
7.18764863e-06
7.188073938e-06
7.188616627e-06
7.189238267e-06
7.189893077e-06
7.190531375e-06
7.191104731e-06
7.191572595e-06
7.191909958e-06
7.192115337e-06
7.192218153e-06
7.192284415e-06
7.192419561e-06
7.192767354e-06
7.193503952e-06
7.194826599e-06
7.196936889e-06
7.200019128e-06
7.204215031e-06
7.209596603e-06
7.216139723e-06
7.22370139e-06
7.232003873e-06
7.240629001e-06
7.249025402e-06
7.256531167e-06
7.262412231e-06
7.265919231e-06
7.26635036e-06
7.263125971e-06
7.262775026e-06
7.262406347e-06
7.262019993e-06
7.261616019e-06
7.261194419e-06
7.260755161e-06
7.260298212e-06
7.259823539e-06
7.259331111e-06
7.258820902e-06
7.258292891e-06
7.257747066e-06
7.25718342e-06
7.256601952e-06
7.256002671e-06
7.255385591e-06
7.254750735e-06
7.254098131e-06
7.253427817e-06
7.252739838e-06
7.252034245e-06
7.251311099e-06
7.250570466e-06
7.249812425e-06
7.249037057e-06
7.248244455e-06
7.24743472e-06
7.246607961e-06
7.245764295e-06
7.244903848e-06
7.244026755e-06
7.24313316e-06
7.242223215e-06
7.241297081e-06
7.240354929e-06
7.23939694e-06
7.238423302e-06
7.237434213e-06
7.236429882e-06
7.235410527e-06
7.234376373e-06
7.233327657e-06
7.232264628e-06
7.231187539e-06
7.230096659e-06
7.228992262e-06
7.227874635e-06
7.226744075e-06
7.225600888e-06
7.22444539e-06
7.223277908e-06
7.22209878e-06
7.220908352e-06
7.219706984e-06
7.218495043e-06
7.217272907e-06
7.216040967e-06
7.214799622e-06
7.213549282e-06
7.212290368e-06
7.211023312e-06
7.209748556e-06
7.208466552e-06
7.207177764e-06
7.205882667e-06
7.204581743e-06
7.203275488e-06
7.201964409e-06
7.200649022e-06
7.199329852e-06
7.198007439e-06
7.19668233e-06
7.195355082e-06
7.194026266e-06
7.192696461e-06
7.191366255e-06
7.19003625e-06
7.188707055e-06
7.187379291e-06
7.186053587e-06
7.184730586e-06
7.183410937e-06
7.1820953e-06
7.180784347e-06
7.179478756e-06
7.178179218e-06
7.176886432e-06
7.175601106e-06
7.174323958e-06
7.173055714e-06
7.171797112e-06
7.170548896e-06
7.169311819e-06
7.168086644e-06
7.166874142e-06
7.165675092e-06
7.164490282e-06
7.163320507e-06
7.16216657e-06
7.161029282e-06
7.159909462e-06
7.158807935e-06
7.157725535e-06
7.156663101e-06
7.155621479e-06
7.154601522e-06
7.153604091e-06
7.152630049e-06
7.151680268e-06
7.150755625e-06
7.149857001e-06
7.148985284e-06
7.148141366e-06
7.147326142e-06
7.146540514e-06
7.145785387e-06
7.145061668e-06
7.14437027e-06
7.143712108e-06
7.143088099e-06
7.142499165e-06
7.141946227e-06
7.141430211e-06
7.140952042e-06
7.140512649e-06
7.140112959e-06
7.139753901e-06
7.139436405e-06
7.1391614e-06
7.138929813e-06
7.138742574e-06
7.138600608e-06
7.138504839e-06
7.138456192e-06
7.138455586e-06
7.138503939e-06
7.138602166e-06
7.138751177e-06
7.138951879e-06
7.139205175e-06
7.139511962e-06
7.139873133e-06
7.140289574e-06
7.140762165e-06
7.141291781e-06
7.141879288e-06
7.142525545e-06
7.143231404e-06
7.143997707e-06
7.144825288e-06
7.145714972e-06
7.146667573e-06
7.147683895e-06
7.148764733e-06
7.149910867e-06
7.151123069e-06
7.152402095e-06
7.153748693e-06
7.155163592e-06
7.156647511e-06
7.158201153e-06
7.159825208e-06
7.161520348e-06
7.16328723e-06
7.165126496e-06
7.167038769e-06
7.169024656e-06
7.171084745e-06
7.173219606e-06
7.175429789e-06
7.177715825e-06
7.180078225e-06
7.182517479e-06
7.185034056e-06
7.187628402e-06
7.190300943e-06
7.193052079e-06
7.195882188e-06
7.198791626e-06
7.201780721e-06
7.204849779e-06
7.207999077e-06
7.211228868e-06
7.21453938e-06
7.217930809e-06
7.221403328e-06
7.224957078e-06
7.228592174e-06
7.2323087e-06
7.236106709e-06
7.239986227e-06
7.243947246e-06
7.247989727e-06
7.252113601e-06
7.256318763e-06
7.260605078e-06
7.264972376e-06
7.269420454e-06
7.273949074e-06
7.278557962e-06
7.28324681e-06
7.288015273e-06
7.292862971e-06
7.297789486e-06
7.302794362e-06
7.307877108e-06
7.313037191e-06
7.318274043e-06
7.323587055e-06
7.328975578e-06
7.334438925e-06
7.339976369e-06
7.345587139e-06
7.351270428e-06
7.357025384e-06
7.362851114e-06
7.368746684e-06
7.374711118e-06
7.380743397e-06
7.386842457e-06
7.393007194e-06
7.39923646e-06
7.405529062e-06
7.411883764e-06
7.418299286e-06
7.424774304e-06
7.431307448e-06
7.437897306e-06
7.44454242e-06
7.451241287e-06
7.457992358e-06
7.464794041e-06
7.471644698e-06
7.478542646e-06
7.485486157e-06
7.492473457e-06
7.499502728e-06
7.506572107e-06
7.513679684e-06
7.520823508e-06
7.52800158e-06
7.535211857e-06
7.542452252e-06
7.549720634e-06
7.557014828e-06
7.564332615e-06
7.571671733e-06
7.579029876e-06
7.586404697e-06
7.593793805e-06
7.601194767e-06
7.608605111e-06
7.616022321e-06
7.623443843e-06
7.630867081e-06
7.638289402e-06
7.645708131e-06
7.653120559e-06
7.660523938e-06
7.667915481e-06
7.675292371e-06
7.68265175e-06
7.689990728e-06
7.697290097e-06
7.704547862e-06
7.711774094e-06
7.718999283e-06
7.726213265e-06
7.73340571e-06
7.740566118e-06
7.74768377e-06
7.754747753e-06
7.761746945e-06
7.768670009e-06
7.775505389e-06
7.782241329e-06
7.788865805e-06
7.795370571e-06
7.801799311e-06
7.808149376e-06
7.814418404e-06
7.820604347e-06
7.82669362e-06
7.832674802e-06
7.838544121e-06
7.844297765e-06
7.849931878e-06
7.855442564e-06
7.860825889e-06
7.866077883e-06
7.871194538e-06
7.876171816e-06
7.881005642e-06
7.885691915e-06
7.890226502e-06
7.894605243e-06
7.898823955e-06
7.902878429e-06
7.906764432e-06
7.910477716e-06
7.914014009e-06
7.917369026e-06
7.920538465e-06
7.923518013e-06
7.926303343e-06
7.928890121e-06
7.931274004e-06
7.933450645e-06
7.935415692e-06
7.937164793e-06
7.938693595e-06
7.939997748e-06
7.941072906e-06
7.94191473e-06
7.942518889e-06
7.942881063e-06
7.942996945e-06
7.942862241e-06
7.942472676e-06
7.941823993e-06
7.940911957e-06
7.939732356e-06
7.938281004e-06
7.936553742e-06
7.934546441e-06
7.932255005e-06
7.929675374e-06
7.926803521e-06
7.923635462e-06
7.920167252e-06
7.91639499e-06
7.912314822e-06
7.90792294e-06
7.903215589e-06
7.898189064e-06
7.892839716e-06
7.887163955e-06
7.881158247e-06
7.874819122e-06
7.868143171e-06
7.861127054e-06
7.853767497e-06
7.846061295e-06
7.838005315e-06
7.8295965e-06
7.820831866e-06
7.811708507e-06
7.802223594e-06
7.79237438e-06
7.782158199e-06
7.771572468e-06
7.760614686e-06
7.749282438e-06
7.737573394e-06
7.725485308e-06
7.713016019e-06
7.700163454e-06
7.68692562e-06
7.67330061e-06
7.659286599e-06
7.644881838e-06
7.63008466e-06
7.614893468e-06
7.599306735e-06
7.583323001e-06
7.566940863e-06
7.550158972e-06
7.532976021e-06
7.515390743e-06
7.497401891e-06
7.479008234e-06
7.460208541e-06
7.441001563e-06
7.421386017e-06
7.401360565e-06
7.380923795e-06
7.360074189e-06
7.3388101e-06
7.317129715e-06
7.295031022e-06
7.272511769e-06
7.249569417e-06
7.226201092e-06
7.202403529e-06
7.178173006e-06
7.153505283e-06
7.12839552e-06
7.102838198e-06
7.076827027e-06
7.050354847e-06
7.023413518e-06
6.995993808e-06
6.96808526e-06
6.939676065e-06
6.910752912e-06
6.881300838e-06
6.851303075e-06
6.82074088e-06
6.789593374e-06
6.757837377e-06
6.72544725e-06
6.692394745e-06
6.658648884e-06
6.62417585e-06
6.588938934e-06
6.552898528e-06
6.516012182e-06
6.478234894e-06
6.439519005e-06
6.399814957e-06
6.35907174e-06
6.317237662e-06
6.274261334e-06
6.230092796e-06
6.18468537e-06
6.137997174e-06
6.089993368e-06
6.040648598e-06
5.989949746e-06
5.937898913e-06
5.884516584e-06
5.829844861e-06
5.773950634e-06
5.716928521e-06
5.658903393e-06
5.600032278e-06
5.540505431e-06
5.48054639e-06
5.42041087e-06
5.360384397e-06
5.300778662e-06
5.241926675e-06
5.184176845e-06
5.127886338e-06
5.073413832e-06
5.021112177e-06
4.971321242e-06
4.924361304e-06
4.880527113e-06
4.840083055e-06
4.803259078e-06
4.770247469e-06
4.741200059e-06
4.716225772e-06
4.695389234e-06
4.67871225e-06
4.666181233e-06
4.657978345e-06
4.654010945e-06
4.655571963e-06
4.661692072e-06
4.671051242e-06
4.679203189e-06
4.693019742e-06
4.71108471e-06
4.73270965e-06
4.757557648e-06
4.785448626e-06
4.816196847e-06
4.849933728e-06
4.886721902e-06
4.926595123e-06
4.968982895e-06
5.015668269e-06
5.055452707e-06
5.099197906e-06
5.146519561e-06
5.196913212e-06
5.243890648e-06
5.292952065e-06
5.343801877e-06
5.395980684e-06
5.442688567e-06
5.489576303e-06
5.535980218e-06
5.581305871e-06
5.625072792e-06
5.666892655e-06
5.706441263e-06
5.742073932e-06
5.775193574e-06
5.805534369e-06
5.833533945e-06
5.859416677e-06
5.883405973e-06
5.905708716e-06
5.926488799e-06
5.945719311e-06
5.962887119e-06
5.978180833e-06
5.991743286e-06
6.003664721e-06
6.014132364e-06
6.023500189e-06
6.032107511e-06
6.040238701e-06
6.048077039e-06
6.055022571e-06
6.061174353e-06
6.066966421e-06
6.07234746e-06
6.077300576e-06
6.0818402e-06
6.085997703e-06
6.089810587e-06
6.093304293e-06
6.096523421e-06
6.099496387e-06
6.102246909e-06
6.104795145e-06
6.107158072e-06
6.109350035e-06
6.111383251e-06
6.113268232e-06
6.115014127e-06
6.116629006e-06
6.118120042e-06
6.119493673e-06
6.120755733e-06
6.121911542e-06
6.122965987e-06
6.123923548e-06
6.124788374e-06
6.12556431e-06
6.126254921e-06
6.126863522e-06
6.127393201e-06
6.127846835e-06
6.12822711e-06
6.128536534e-06
6.128777453e-06
6.128952064e-06
6.129062424e-06
6.129110462e-06
6.12909799e-06
6.12902671e-06
6.128898222e-06
6.128714033e-06
6.128475563e-06
6.12818415e-06
6.127841058e-06
6.12744748e-06
6.127004547e-06
6.126513326e-06
6.125974829e-06
6.125390019e-06
6.124759806e-06
6.124085057e-06
6.123366597e-06
6.122605212e-06
6.121801651e-06
6.12095663e-06
6.120070833e-06
6.119144916e-06
6.118179507e-06
6.117175209e-06
6.116132603e-06
6.115052248e-06
6.113934683e-06
6.112780429e-06
6.111589992e-06
6.11036386e-06
6.10910251e-06
6.107806402e-06
6.106475989e-06
6.10511171e-06
6.103713997e-06
6.102283272e-06
6.100819948e-06
6.099324435e-06
6.097797132e-06
6.096238437e-06
6.094648741e-06
6.093028431e-06
6.091377892e-06
6.089697504e-06
6.087987647e-06
6.086248697e-06
6.084481031e-06
6.082685023e-06
6.080861048e-06
6.079009479e-06
6.077130692e-06
6.075225061e-06
6.073292962e-06
6.071334771e-06
6.069350868e-06
6.067341632e-06
6.065307444e-06
6.063248689e-06
6.061165753e-06
6.059059011e-06
6.056928868e-06
6.054775713e-06
6.052599944e-06
6.050401962e-06
6.048182169e-06
6.045940969e-06
6.043678772e-06
6.041395988e-06
6.039093033e-06
6.036770326e-06
6.034428288e-06
6.032067343e-06
6.029687921e-06
6.027290454e-06
6.024875377e-06
6.022443129e-06
6.019994153e-06
6.017528894e-06
6.015047801e-06
6.012551328e-06
6.010039931e-06
6.007514069e-06
6.004974204e-06
6.002420804e-06
5.999854338e-06
5.997275278e-06
5.9946841e-06
5.992081284e-06
5.989467311e-06
5.986842667e-06
5.98420784e-06
5.981563321e-06
5.978909604e-06
5.976247185e-06
5.973576565e-06
5.970898244e-06
5.968212729e-06
5.965520526e-06
5.962822144e-06
5.960118097e-06
5.957408898e-06
5.954695064e-06
5.951977114e-06
5.949255568e-06
5.94653095e-06
5.943803783e-06
5.941074596e-06
5.938343915e-06
5.935612272e-06
5.932880197e-06
5.930148224e-06
5.927416887e-06
5.924686723e-06
5.921958267e-06
5.919232059e-06
5.916508638e-06
5.913788545e-06
5.91107232e-06
5.908360506e-06
5.905653645e-06
5.902952282e-06
5.90025696e-06
5.897568225e-06
5.89488662e-06
5.892212693e-06
5.889546987e-06
5.88689005e-06
5.884242426e-06
5.881604663e-06
5.878977305e-06
5.876360899e-06
5.87375599e-06
5.871163123e-06
5.868582843e-06
5.866015694e-06
5.86346222e-06
5.860922963e-06
5.858398467e-06
5.855889273e-06
5.853395921e-06
5.850918951e-06
5.848458902e-06
5.846016312e-06
5.843591717e-06
5.841185651e-06
5.838798651e-06
5.836431246e-06
5.83408397e-06
5.83175735e-06
5.829451916e-06
5.827168194e-06
5.824906707e-06
5.822667979e-06
5.820452531e-06
5.818260881e-06
5.816093546e-06
5.813951041e-06
5.81183388e-06
5.809742571e-06
5.807677625e-06
5.805639545e-06
5.803628837e-06
5.801646001e-06
5.799691535e-06
5.797765936e-06
5.795869697e-06
5.794003308e-06
5.792167258e-06
5.790362032e-06
5.788588112e-06
5.786845977e-06
5.785136103e-06
5.783458965e-06
5.781815031e-06
5.780204771e-06
5.778628647e-06
5.77708712e-06
5.775580647e-06
5.774109683e-06
5.772674679e-06
5.771276082e-06
5.769914335e-06
5.76858988e-06
5.767303151e-06
5.766054584e-06
5.764844607e-06
5.763673646e-06
5.762542122e-06
5.761450454e-06
5.760399057e-06
5.75938834e-06
5.75841871e-06
5.75749057e-06
5.756604317e-06
5.755760347e-06
5.75495905e-06
5.754200811e-06
5.753486014e-06
5.752815034e-06
5.752188247e-06
5.75160602e-06
5.75106872e-06
5.750576705e-06
5.750130334e-06
5.749729956e-06
5.749375919e-06
5.749068566e-06
5.748808235e-06
5.748595258e-06
5.748429966e-06
5.748312681e-06
5.748243724e-06
5.748223409e-06
5.748252047e-06
5.748329941e-06
5.748457393e-06
5.748634698e-06
5.748862146e-06
5.749140024e-06
5.749468611e-06
5.749848185e-06
5.750279014e-06
5.750761365e-06
5.751295499e-06
5.751881671e-06
5.752520131e-06
5.753211124e-06
5.753954891e-06
5.754751666e-06
5.755601678e-06
5.756505153e-06
5.757462308e-06
5.758473358e-06
5.759538511e-06
5.760657969e-06
5.761831931e-06
5.763060587e-06
5.764344126e-06
5.765682727e-06
5.767076567e-06
5.768525816e-06
5.770030638e-06
5.771591192e-06
5.773207631e-06
5.774880104e-06
5.776608751e-06
5.778393711e-06
5.780235113e-06
5.782133083e-06
5.784087739e-06
5.786099196e-06
5.788167561e-06
5.790292937e-06
5.792475418e-06
5.794715096e-06
5.797012056e-06
5.799366375e-06
5.801778126e-06
5.804247377e-06
5.806774188e-06
5.809358615e-06
5.812000705e-06
5.814700502e-06
5.817458044e-06
5.820273361e-06
5.823146479e-06
5.826077415e-06
5.829066184e-06
5.832112791e-06
5.835217239e-06
5.83837952e-06
5.841599625e-06
5.844877536e-06
5.848213228e-06
5.851606672e-06
5.855057832e-06
5.858566667e-06
5.862133127e-06
5.865757169e-06
5.869438721e-06
5.873177717e-06
5.876974083e-06
5.880827743e-06
5.88473861e-06
5.888706591e-06
5.892731588e-06
5.896813498e-06
5.90095221e-06
5.905147609e-06
5.90939957e-06
5.913707965e-06
5.91807266e-06
5.922493512e-06
5.926970374e-06
5.931503092e-06
5.936091506e-06
5.94073545e-06
5.945434752e-06
5.950189232e-06
5.954998707e-06
5.959862984e-06
5.964781867e-06
5.969755152e-06
5.97478263e-06
5.979864085e-06
5.984999295e-06
5.990188033e-06
5.995430064e-06
6.000725148e-06
6.00607304e-06
6.011473486e-06
6.016926229e-06
6.022431005e-06
6.027987543e-06
6.033595566e-06
6.039254794e-06
6.044964938e-06
6.050725703e-06
6.056536791e-06
6.062397895e-06
6.068308704e-06
6.074268901e-06
6.080278163e-06
6.086336162e-06
6.092442562e-06
6.098597025e-06
6.104799205e-06
6.11104875e-06
6.117345304e-06
6.123688505e-06
6.130077986e-06
6.136513374e-06
6.142994291e-06
6.149520353e-06
6.156091172e-06
6.162706354e-06
6.1693655e-06
6.176068206e-06
6.182814063e-06
6.189602657e-06
6.19643357e-06
6.203306378e-06
6.210220652e-06
6.217175959e-06
6.224171863e-06
6.231207919e-06
6.238283682e-06
6.245398701e-06
6.25255252e-06
6.259744679e-06
6.266974714e-06
6.274242157e-06
6.281546537e-06
6.288887376e-06
6.296264196e-06
6.303676512e-06
6.311123838e-06
6.318605682e-06
6.326121549e-06
6.333670943e-06
6.341253361e-06
6.3488683e-06
6.356515251e-06
6.364193705e-06
6.371903148e-06
6.379643064e-06
6.387412934e-06
6.395212236e-06
6.403040446e-06
6.410897038e-06
6.418781484e-06
6.426693252e-06
6.43463181e-06
6.442596623e-06
6.450587154e-06
6.458602865e-06
6.466643218e-06
6.474707669e-06
6.482795678e-06
6.490906701e-06
6.499040192e-06
6.507195607e-06
6.515372399e-06
6.523570021e-06
6.531787926e-06
6.540025566e-06
6.548282394e-06
6.556557861e-06
6.564851419e-06
6.57316252e-06
6.581490617e-06
6.589835164e-06
6.598195613e-06
6.60657142e-06
6.614962039e-06
6.623366928e-06
6.631785544e-06
6.640217346e-06
6.648661796e-06
6.657118354e-06
6.665586487e-06
6.674065659e-06
6.68255534e-06
6.691054999e-06
6.699564112e-06
6.708082152e-06
6.716608599e-06
6.725142934e-06
6.733684642e-06
6.74223321e-06
6.750788131e-06
6.759348898e-06
6.767915011e-06
6.776485971e-06
6.785061286e-06
6.793640465e-06
6.802223024e-06
6.810808482e-06
6.819396362e-06
6.827986194e-06
6.836577512e-06
6.845169854e-06
6.853762763e-06
6.86235579e-06
6.870948489e-06
6.87954042e-06
6.888131149e-06
6.896720249e-06
6.905307297e-06
6.913891878e-06
6.922473582e-06
6.931052006e-06
6.939626753e-06
6.948197433e-06
6.956763663e-06
6.965325066e-06
6.973881274e-06
6.982431923e-06
6.99097666e-06
6.999515135e-06
7.008046999e-06
7.016571931e-06
7.025089604e-06
7.033599704e-06
7.042101921e-06
7.050595957e-06
7.059081517e-06
7.067558322e-06
7.076026097e-06
7.084484576e-06
7.092933501e-06
7.10137262e-06
7.109801686e-06
7.118220451e-06
7.126628667e-06
7.135026075e-06
7.1434124e-06
7.151787326e-06
7.160150519e-06
7.168501473e-06
7.176839953e-06
7.185164462e-06
7.193475852e-06
7.201771009e-06
7.210049204e-06
7.218310371e-06
7.226552936e-06
7.234760626e-06
7.352144059e-06
7.447068526e-06
7.520704699e-06
7.573998207e-06
7.60803681e-06
7.624028528e-06
7.623267884e-06
7.607124724e-06
7.577029038e-06
7.534454042e-06
7.480900051e-06
7.417878229e-06
7.346894814e-06
7.26943591e-06
7.1869531e-06
7.100849891e-06
7.012469312e-06
6.923082684e-06
6.833879681e-06
6.745959711e-06
6.660324853e-06
6.577874082e-06
6.499399128e-06
6.425581731e-06
6.356992343e-06
6.294090319e-06
6.237225357e-06
6.186640333e-06
6.142475211e-06
6.10477218e-06
6.073481641e-06
6.048469175e-06
6.029523156e-06
6.016363026e-06
6.008647994e-06
6.005986083e-06
6.007943353e-06
6.014053166e-06
6.023825379e-06
6.036755314e-06
6.052332399e-06
6.070048368e-06
6.08940491e-06
6.109920701e-06
6.131137711e-06
6.152626759e-06
6.173992241e-06
6.194876019e-06
6.214960432e-06
6.233970451e-06
6.251674974e-06
6.267887278e-06
6.282464701e-06
6.295307556e-06
6.306357382e-06
6.315594577e-06
6.323035495e-06
6.3287291e-06
6.332753257e-06
6.335210748e-06
6.33622512e-06
6.335936435e-06
6.334497027e-06
6.332067336e-06
6.328811905e-06
6.324895609e-06
6.32048017e-06
6.315721026e-06
6.31076457e-06
6.305745826e-06
6.300786552e-06
6.295993795e-06
6.291458895e-06
6.287256933e-06
6.283446593e-06
6.280070415e-06
6.277155414e-06
6.274713999e-06
6.272745176e-06
6.27123596e-06
6.270162959e-06
6.269494068e-06
6.269190228e-06
6.269207201e-06
6.269497302e-06
6.270011059e-06
6.270698761e-06
6.271511853e-06
6.272404165e-06
6.273332946e-06
6.274259699e-06
6.275150805e-06
6.275977943e-06
6.276718309e-06
6.277354644e-06
6.277875099e-06
6.278272942e-06
6.278546139e-06
6.278696841e-06
6.278730786e-06
6.278656656e-06
6.278485416e-06
6.278229642e-06
6.277902887e-06
6.277519073e-06
6.277091952e-06
6.276634633e-06
6.276159187e-06
6.275676337e-06
6.275195237e-06
6.27472333e-06
6.274266287e-06
6.273828027e-06
6.273410789e-06
6.27301527e-06
6.272640795e-06
6.272285531e-06
6.271946707e-06
6.271620855e-06
6.27130404e-06
6.270992085e-06
6.270680777e-06
6.270366049e-06
6.27004413e-06
6.269711673e-06
6.269365845e-06
6.269004382e-06
6.268625626e-06
6.268228525e-06
6.267812612e-06
6.267377969e-06
6.266925171e-06
6.266455222e-06
6.265969483e-06
6.265469601e-06
6.264957435e-06
6.264434989e-06
6.263904347e-06
6.263367624e-06
6.262826915e-06
6.262284263e-06
6.261741628e-06
6.261200873e-06
6.260663745e-06
6.260131878e-06
6.259606792e-06
6.259089894e-06
6.258582488e-06
6.258085785e-06
6.257600913e-06
6.257128925e-06
6.25667081e-06
6.2562275e-06
6.255799878e-06
6.255388781e-06
6.254995004e-06
6.254619302e-06
6.254262388e-06
6.253924937e-06
6.253607573e-06
6.253310877e-06
6.253035374e-06
6.252781527e-06
6.252549739e-06
6.252340335e-06
6.252153562e-06
6.251989581e-06
6.251848457e-06
6.251730152e-06
6.251634523e-06
6.251561311e-06
6.25151014e-06
6.251480514e-06
6.251471811e-06
6.25148329e-06
6.251514091e-06
6.251563239e-06
6.251629651e-06
6.25171215e-06
6.251809469e-06
6.251920271e-06
6.252043163e-06
6.252176711e-06
6.252319461e-06
6.252469956e-06
6.252626755e-06
6.252788456e-06
6.252953711e-06
6.253121248e-06
6.25328989e-06
6.253458567e-06
6.253626339e-06
6.253792404e-06
6.253956118e-06
6.254116997e-06
6.254274738e-06
6.254429216e-06
6.254580498e-06
6.254728841e-06
6.254874695e-06
6.255018704e-06
6.255161698e-06
6.255304689e-06
6.25544886e-06
6.255595553e-06
6.255746255e-06
6.255902575e-06
6.256066228e-06
6.256239005e-06
6.256422749e-06
6.256619328e-06
6.256830599e-06
6.257058377e-06
6.257304406e-06
6.257570319e-06
6.25785761e-06
6.258167598e-06
6.258501399e-06
6.258859899e-06
6.259243722e-06
6.259653217e-06
6.260088433e-06
6.260549108e-06
6.261034658e-06
6.261544173e-06
6.262076418e-06
6.262629835e-06
6.263202554e-06
6.263792406e-06
6.26439694e-06
6.265013448e-06
6.265638982e-06
6.266270388e-06
6.266904331e-06
6.267537326e-06
6.268165769e-06
6.268785972e-06
6.26939419e-06
6.269986659e-06
6.27055962e-06
6.271109357e-06
6.271632218e-06
6.272124643e-06
6.272583184e-06
6.273004512e-06
6.273385428e-06
6.27372284e-06
6.274013698e-06
6.274254868e-06
)
;

boundaryField
{
    inlet
    {
        type            calculated;
        value           uniform -6.641613288e-06;
    }
    outlet
    {
        type            calculated;
        value           uniform 6.274442689e-06;
    }
    wall
    {
        type            empty;
        value           nonuniform 0();
    }
}


// ************************************************************************* //
