/*--------------------------------*- C++ -*----------------------------------*\
  =========                 |
  \\      /  F ield         | OpenFOAM: The Open Source CFD Toolbox
   \\    /   O peration     | Website:  https://openfoam.org
    \\  /    A nd           | Version:  7
     \\/     M anipulation  |
\*---------------------------------------------------------------------------*/
FoamFile
{
    version     2.0;
    format      ascii;
    class       volScalarField;
    location    "0.000558243009";
    object      T;
}
// * * * * * * * * * * * * * * * * * * * * * * * * * * * * * * * * * * * * * //

dimensions      [0 0 0 1 0 0 0];

internalField   nonuniform List<scalar> 
1500
(
304.749314
304.0114592
302.9512755
301.9074627
301.1175379
300.6273767
300.368329
300.2488141
300.1996541
300.1810373
300.1740022
300.1708018
300.1687162
300.1669636
300.1654037
300.1640543
300.1629374
300.162047
300.1613556
300.160829
300.1604373
300.160159
300.1599802
300.1598918
300.1598847
300.1599476
300.1600658
300.160222
300.1603979
300.1605763
300.1607426
300.1608855
300.1609978
300.1610755
300.1611175
300.1611247
300.1610996
300.1610454
300.1609662
300.160866
300.1607494
300.1606208
300.1604843
300.160344
300.1602032
300.1600646
300.1599299
300.1598004
300.1596764
300.1595577
300.1594438
300.1593342
300.159228
300.1591249
300.1590246
300.1589274
300.1588338
300.1587446
300.158661
300.1585843
300.1585161
300.158458
300.1584116
300.1583784
300.1583598
300.1583568
300.1583704
300.1584012
300.1584491
300.1585141
300.1585955
300.1586921
300.1588024
300.1589247
300.1590566
300.1591957
300.1593394
300.1594849
300.1596293
300.15977
300.1599043
300.1600296
300.1601438
300.160245
300.1603315
300.160402
300.1604557
300.1604921
300.1605109
300.1605123
300.1604968
300.1604652
300.1604187
300.1603586
300.1602863
300.1602037
300.1601126
300.1600147
300.1599122
300.1598069
300.1597005
300.1595947
300.159491
300.1593908
300.1592949
300.1592041
300.1591188
300.1590393
300.1589654
300.1588968
300.1588329
300.1587731
300.1587165
300.1586622
300.1586096
300.1585578
300.1585062
300.1584544
300.1584019
300.1583487
300.1582949
300.1582406
300.1581862
300.1581324
300.1580795
300.1580283
300.1579794
300.1579335
300.1578912
300.1578529
300.1578191
300.1577902
300.1577665
300.1577483
300.1577357
300.157729
300.1577281
300.1577334
300.1577449
300.1577627
300.1577871
300.1578182
300.1578561
300.157901
300.1579531
300.1580123
300.1580785
300.1581518
300.1582317
300.158318
300.1584102
300.1585076
300.1586095
300.1587151
300.1588235
300.1589337
300.1590449
300.1591558
300.1592657
300.1593736
300.1594785
300.1595797
300.1596764
300.159768
300.1598539
300.1599336
300.1600066
300.1600725
300.1601308
300.1601813
300.1602235
300.1602571
300.1602819
300.1602974
300.1603035
300.1602999
300.1602866
300.1602636
300.160231
300.1601891
300.1601385
300.1600797
300.1600139
300.1599421
300.1598659
300.1597869
300.1597071
300.1596287
300.1595539
300.159485
300.1594245
300.1593744
300.1593369
300.1593134
300.1593053
300.1593133
300.1593376
300.159378
300.1594339
300.1595045
300.1595887
300.1596855
300.1597941
300.1599136
300.1600435
300.1601832
300.1603321
300.1604889
300.160652
300.1608183
300.1609839
300.1611434
300.1612905
300.1614178
300.1615183
300.1615857
300.1616158
300.1616078
300.1615652
300.161497
300.1614178
300.1613479
300.1613118
300.1613372
300.1614515
300.1616792
300.1620377
300.1625338
300.1631605
300.1638945
300.1646955
300.165507
300.1662595
300.1668762
300.1672806
300.1674059
300.1672053
300.1666626
300.1658018
300.1646939
300.1634604
300.1622715
300.1613397
300.1609055
300.161218
300.1625083
300.1649534
300.1686202
300.1733568
300.1785068
300.1804222
300.1808768
300.1813367
300.1818019
300.1822719
300.1827465
300.1832256
300.183709
300.1841965
300.1846881
300.1851837
300.1856831
300.1861863
300.1866932
300.1872036
300.1877175
300.1882346
300.1887548
300.1892781
300.1898043
300.1903332
300.1908646
300.1913986
300.1919348
300.1924731
300.1930134
300.1935555
300.1940992
300.1946444
300.1951909
300.1957385
300.196287
300.1968362
300.197386
300.1979362
300.1984865
300.1990368
300.1995869
300.2001365
300.2006854
300.2012335
300.2017805
300.2023262
300.2028703
300.2034127
300.2039531
300.2044913
300.2050271
300.2055601
300.2060902
300.2066172
300.2071407
300.2076605
300.2081764
300.2086881
300.2091953
300.2096978
300.2101954
300.2106877
300.2111744
300.2116554
300.2121304
300.212599
300.2130609
300.213516
300.2139639
300.2144043
300.214837
300.2152616
300.2156778
300.2160855
300.2164842
300.2168737
300.2172536
300.2176238
300.2179838
300.2183335
300.2186724
300.2190002
300.2193168
300.2196217
300.2199147
300.2201954
300.2204636
300.220719
300.2209612
300.22119
300.2214049
300.2216058
300.2217924
300.2219642
300.2221211
300.2222627
300.2223887
300.2224988
300.2225928
300.2226702
300.2227309
300.2227745
300.2228008
300.2228094
300.2228001
300.2227725
300.2227264
300.2226616
300.2225777
300.2224744
300.2223515
300.2222088
300.2220459
300.2218626
300.2216586
300.2214338
300.2211877
300.2209203
300.2206312
300.2203202
300.2199871
300.2196317
300.2192537
300.2188529
300.2184292
300.2179822
300.2175119
300.217018
300.2165003
300.2159587
300.215393
300.214803
300.2141885
300.2135495
300.2128857
300.2121971
300.2114835
300.2107447
300.2099807
300.2091914
300.2083766
300.2075363
300.2066705
300.2057789
300.2048616
300.2039186
300.2029497
300.2019549
300.2009343
300.1998878
300.1988154
300.1977171
300.1965929
300.1954429
300.1942671
300.1930655
300.1918383
300.1905854
300.1893071
300.1880033
300.1866741
300.1853198
300.1839404
300.1825361
300.181107
300.1796533
300.1781751
300.1766728
300.1751464
300.1735963
300.1720225
300.1704255
300.1688054
300.1671625
300.1654971
300.1638095
300.1621
300.160369
300.1586167
300.1568436
300.15505
300.1532363
300.1514028
300.1495501
300.1476785
300.1457885
300.1438805
300.141955
300.1400124
300.1380534
300.1360783
300.1340878
300.1320823
300.1300625
300.1280288
300.1259819
300.1239224
300.121851
300.1197681
300.1176745
300.1155708
300.1134578
300.111336
300.1092063
300.1070693
300.1049257
300.1027763
300.1006219
300.0984633
300.0963011
300.0941363
300.0919696
300.0898019
300.087634
300.0854668
300.0833012
300.0811379
300.078978
300.0768224
300.0746719
300.0725275
300.0703901
300.0682608
300.0661404
300.06403
300.0619306
300.0598431
300.0577686
300.0557082
300.0536627
300.0516334
300.0496213
300.0476274
300.0456529
300.0436987
300.0417661
300.0398561
300.0379699
300.0361086
300.0342732
300.0324651
300.0306853
300.0289349
300.0272153
300.0255274
300.0238727
300.0222521
300.020667
300.0191185
300.0176079
300.0161364
300.0147052
300.0133157
300.0119689
300.0106662
300.009409
300.0081983
300.0070356
300.0059222
300.0048593
300.0038483
300.0028906
300.0019874
300.0011403
300.0003504
300
300
300
300
300
300
300
300
300
300
300
300
300
300
300
300
300
300
300
300
300
300.0004395
300.0013602
300.0023696
300.0034687
300.0046585
300.0059398
300.0073138
300.0087812
300.010343
300.0120001
300.0137534
300.0156037
300.0175519
300.0195989
300.0217455
300.0239924
300.0263405
300.0287904
300.0313431
300.0339991
300.0367593
300.0396242
300.0425946
300.0456711
300.0488543
300.0521449
300.0555435
300.0590506
300.0626668
300.0663927
300.0702288
300.0741756
300.0782338
300.0824037
300.086686
300.0910811
300.0955897
300.1002122
300.1049493
300.1098015
300.1147694
300.1198538
300.1250553
300.1303748
300.1358131
300.1413712
300.1470502
300.1528511
300.1587754
300.1648245
300.1710002
300.1773043
300.1837391
300.1903069
300.1970106
300.2038534
300.2108389
300.2179711
300.2252548
300.2326953
300.2402986
300.2480715
300.2560218
300.2641584
300.2724912
300.2810316
300.2897924
300.2987882
300.3080353
300.3175524
300.3273606
300.3374836
300.3479483
300.358785
300.3700279
300.3817157
300.393892
300.4066059
300.4199128
300.4338752
300.4485633
300.4640564
300.4804439
300.497826
300.516316
300.5360411
300.5571445
300.5797873
300.6041508
300.6304387
300.6588802
300.689733
300.7232866
300.7598665
300.7998385
300.8436134
300.8916529
300.9444754
301.0026631
301.0668699
301.1378295
301.2163657
301.3034028
301.3999779
301.507254
301.6265358
301.7592854
301.9071418
302.0719414
302.2557408
302.4608427
302.6898241
302.9455675
303.2312956
303.5506096
303.9075308
304.3065465
304.7526603
305.2514467
305.8091099
306.4325484
307.1294228
307.9082293
308.7783774
309.7502707
310.8353918
312.0463889
313.3971639
314.9029591
316.5804422
318.4477854
320.5247371
322.8326813
325.3946825
328.2355105
331.3816414
334.8612297
338.7040477
342.9413868
347.6059194
352.7315174
358.3530262
364.5059977
371.2263818
378.5501846
386.5130979
395.1501133
404.4951261
414.5805479
425.4369357
437.0926529
449.5735716
462.902829
477.1006414
492.1841845
508.1675377
525.0616958
542.8746352
561.6114383
581.2744632
601.8635634
623.3763741
645.8087078
669.1552546
693.4055638
718.5681059
744.6099169
771.6051578
799.5356283
828.4033522
857.8354878
888.0434772
919.0047963
950.6940772
983.0796471
1016.532245
1050.244728
1084.604882
1119.595882
1155.186837
1191.35537
1228.496575
1265.719532
1303.417948
1341.555211
1380.405853
1419.256139
1458.344383
1497.55046
1536.971834
1575.984446
1614.626336
1652.66698
1689.864115
1725.97149
1760.746504
1794.096323
1825.572677
1855.243512
1882.858378
1908.463496
1932.084703
1953.792773
1973.694077
1992.060404
2008.988505
2024.52647
2038.813251
2051.981748
2064.153919
2075.439563
2085.935797
2095.727661
2104.882354
2113.352334
2121.317116
2128.888818
2136.026667
2142.770857
2149.157358
2155.217759
2160.979434
2166.46186
2171.693651
2176.688863
2181.46362
2186.032378
2190.408209
2194.603002
2198.627624
2202.492045
2206.205441
2209.776281
2213.212404
2216.521075
2219.709041
2222.782585
2225.747558
2228.609424
2231.373288
2234.04393
2236.625827
2239.12318
2241.539933
2243.879795
2246.146255
2248.3426
2250.471927
2252.53716
2254.541058
2256.486229
2258.37514
2260.210124
2261.993392
2263.727037
2265.413045
2267.053301
2268.649593
2270.203619
2271.716996
2273.191258
2274.627868
2276.028217
2277.393629
2278.725368
2280.024639
2281.292589
2282.530317
2283.738868
2284.919244
2286.072399
2287.199249
2288.300668
2289.377492
2290.430523
2291.460529
2292.468245
2293.454375
2294.419596
2295.364556
2296.289878
2297.196159
2298.083972
2298.95387
2299.806381
2300.642016
2301.461264
2302.264596
2303.052466
2303.825311
2304.583551
2305.32759
2306.057821
2306.774618
2307.478344
2308.16935
2308.847972
2309.514537
2310.169359
2310.812741
2311.444977
2312.06635
2312.677134
2313.277593
2313.867983
2314.448552
2315.019539
2315.581176
2316.133686
2316.677288
2317.212191
2317.738598
2318.256708
2318.76671
2319.268791
2319.763129
2320.249899
2320.72927
2321.201406
2321.666466
2322.124603
2322.575968
2323.020706
2323.458959
2323.890864
2324.316553
2324.736156
2325.1498
2325.557607
2325.959695
2326.356181
2326.747177
2327.132792
2327.513132
2327.888303
2328.258404
2328.623534
2328.983788
2329.33926
2329.69004
2330.036217
2330.377877
2330.715104
2331.047979
2331.376583
2331.700993
2332.021285
2332.337533
2332.649808
2332.958182
2333.262724
2333.563499
2333.860573
2334.154011
2334.443875
2334.730224
2335.01312
2335.292619
2335.568779
2335.841655
2336.111301
2336.377769
2336.641112
2336.90138
2337.158622
2337.412886
2337.664221
2337.912671
2338.158282
2338.401098
2338.641162
2338.878517
2339.113203
2339.345262
2339.574732
2339.801653
2340.026062
2340.247997
2340.467494
2340.684588
2340.899314
2341.111706
2341.321798
2341.529623
2341.735212
2341.938597
2342.139809
2342.338878
2342.535833
2342.730704
2342.923518
2343.114304
2343.303089
2343.4899
2343.674762
2343.857702
2344.038746
2344.217916
2344.395239
2344.570737
2344.744435
2344.916354
2345.086518
2345.254948
2345.421667
2345.586695
2345.750053
2345.911762
2346.071842
2346.230313
2346.387193
2346.542503
2346.69626
2346.848483
2346.99919
2347.148399
2347.296127
2347.442392
2347.587209
2347.730596
2347.872568
2348.013142
2348.152333
2348.290157
2348.426628
2348.561762
2348.695573
2348.828075
2348.959282
2349.08921
2349.21787
2349.345276
2349.471442
2349.596381
2349.720104
2349.842626
2349.963958
2350.084112
2350.2031
2350.320934
2350.437625
2350.553186
2350.667626
2350.780958
2350.893191
2351.004336
2351.114405
2351.223407
2351.331353
2351.438251
2351.544114
2351.648949
2351.752767
2351.855576
2351.957387
2352.058209
2352.158049
2352.256918
2352.354824
2352.451775
2352.54778
2352.642847
2352.736985
2352.830202
2352.922504
2353.013902
2353.104401
2353.19401
2353.282737
2353.370588
2353.457571
2353.543693
2353.628962
2353.713384
2353.796966
2353.879715
2353.961638
2354.042741
2354.123032
2354.202515
2354.281199
2354.359088
2354.43619
2354.51251
2354.588055
2354.662829
2354.73684
2354.810093
2354.882594
2354.954348
2355.025361
2355.095639
2355.165186
2355.234009
2355.302112
2355.369502
2355.436182
2355.502158
2355.567436
2355.63202
2355.695915
2355.759126
2355.821658
2355.883515
2355.944703
2356.005226
2356.065088
2356.124295
2356.18285
2356.240758
2356.298024
2356.354652
2356.410646
2356.46601
2356.520749
2356.574866
2356.628367
2356.681255
2356.733534
2356.785208
2356.836281
2356.886757
2356.93664
2356.985934
2357.034642
2357.082769
2357.130317
2357.177292
2357.223696
2357.269533
2357.314807
2357.359521
2357.40368
2357.447285
2357.490341
2357.532852
2357.574821
2357.61625
2357.657144
2357.697506
2357.73734
2357.776648
2357.815433
2357.8537
2357.891451
2357.928689
2357.965418
2358.001641
2358.03736
2358.07258
2358.107303
2358.141532
2358.17527
2358.208521
2358.241286
2358.273571
2358.305376
2358.336706
2358.367562
2358.397949
2358.427869
2358.457325
2358.486319
2358.514855
2358.542936
2358.570564
2358.597742
2358.624473
2358.65076
2358.676605
2358.702011
2358.726982
2358.751519
2358.775626
2358.799305
2358.822559
2358.845391
2358.867803
2358.889798
2358.911378
2358.932547
2358.953307
2358.973661
2358.993611
2359.013159
2359.03231
2359.051064
2359.069425
2359.087396
2359.104978
2359.122175
2359.138989
2359.155422
2359.171478
2359.187159
2359.202467
2359.217404
2359.231975
2359.24618
2359.260023
2359.273505
2359.286631
2359.299401
2359.311819
2359.323887
2359.335608
2359.346984
2359.358018
2359.368712
2359.379069
2359.389091
2359.39878
2359.40814
2359.417172
2359.42588
2359.434266
2359.442331
2359.45008
2359.457513
2359.464635
2359.471446
2359.47795
2359.48415
2359.490047
2359.495644
2359.500944
2359.50595
2359.510663
2359.515086
2359.519222
2359.523074
2359.526643
2359.529932
2359.532945
2359.535683
2359.538148
2359.540344
2359.542273
2359.543938
2359.545341
2359.546484
2359.547371
2359.548004
2359.548384
2359.548516
2359.548402
2359.548043
2359.547443
2359.546605
2359.545531
2359.544223
2359.542685
2359.540918
2359.538927
2359.536712
2359.534278
2359.531626
2359.52876
2359.525682
2359.522395
2359.518901
2359.515204
2359.511306
2359.50721
2359.502919
2359.498436
2359.493764
2359.488904
2359.483862
2359.478638
2359.473237
2359.467661
2359.461913
2359.455996
2359.449914
2359.443669
2359.437264
2359.430703
2359.423988
2359.417123
2359.410111
2359.402955
2359.395659
2359.388225
2359.380658
2359.37296
2359.365134
2359.357185
2359.349115
2359.340928
2359.332628
2359.324218
2359.315702
2359.307083
2359.298364
2359.289551
2359.280646
2359.271653
2359.262575
2359.253416
2359.244181
2359.234871
2359.22549
2359.216041
2359.206525
2359.196944
2359.187298
2359.177587
2359.167809
2359.157961
2359.148037
2359.138033
2359.127945
2359.117768
2359.107502
2359.09716
2359.086775
2359.002205
2358.880957
2358.774418
2358.684898
2358.613598
2358.561267
2358.528376
2358.51512
2358.521441
2358.547036
2358.591382
2358.653764
2358.73329
2358.828924
2358.939501
2359.06375
2359.200322
2359.347802
2359.504735
2359.669642
2359.84104
2360.017456
2360.197442
2360.379591
2360.562543
2360.745004
2360.925743
2361.103612
2361.277538
2361.446537
2361.609714
2361.76626
2361.91546
2362.056684
2362.189394
2362.313135
2362.427536
2362.532308
2362.627235
2362.712176
2362.787059
2362.851878
2362.906686
2362.951596
2362.986774
2363.012434
2363.028841
2363.036297
2363.035148
2363.025774
2363.008587
2362.98403
2362.952571
2362.914699
2362.870926
2362.821777
2362.767792
2362.709522
2362.647522
2362.582354
2362.514581
2362.444762
2362.373454
2362.301206
2362.228558
2362.156035
2362.08415
2362.013393
2361.944238
2361.87713
2361.812489
2361.750702
2361.692123
2361.637067
2361.585808
2361.538575
2361.495551
2361.456864
2361.422595
2361.392766
2361.367345
2361.346245
2361.329326
2361.316391
2361.307199
2361.301461
2361.298848
2361.298999
2361.301525
2361.306022
2361.312072
2361.31926
2361.327177
2361.335431
2361.343655
2361.351516
2361.358719
2361.365012
2361.370195
2361.374115
2361.376674
2361.377823
2361.377564
2361.375944
2361.373049
2361.369002
2361.363952
2361.358073
2361.351548
2361.344568
2361.337323
2361.329994
2361.32275
2361.31574
2361.309091
2361.302904
2361.297256
2361.292192
2361.287735
2361.283882
2361.280606
2361.277864
2361.275596
2361.273732
2361.272192
2361.270897
2361.269765
2361.26872
2361.267693
2361.266623
2361.265459
2361.264164
2361.262713
2361.261089
2361.259292
2361.257327
2361.25521
2361.252965
2361.250618
2361.2482
2361.245744
2361.243282
2361.240844
2361.238458
2361.236148
2361.233933
2361.231829
2361.229846
2361.227989
2361.226261
2361.224658
2361.223176
2361.221808
2361.220544
2361.219374
2361.218287
2361.217273
2361.216322
2361.215424
2361.214571
2361.213756
2361.212974
2361.212221
2361.211492
2361.210785
2361.2101
2361.209434
2361.208789
2361.208165
2361.207561
2361.206979
2361.206421
2361.205887
2361.205378
2361.204896
2361.204444
2361.204021
2361.20363
2361.203273
2361.202952
2361.202668
2361.202423
2361.202219
2361.202057
2361.201939
2361.201864
2361.201834
2361.201849
2361.201907
2361.202008
2361.202151
2361.202332
2361.202549
2361.2028
2361.20308
2361.203386
2361.203712
2361.204055
2361.204409
2361.20477
2361.205133
2361.205493
2361.205845
2361.206185
2361.206508
2361.206811
2361.207091
2361.207344
2361.207567
2361.207759
2361.207918
2361.208043
2361.208134
2361.208189
2361.20821
2361.208197
2361.208151
2361.208074
2361.207967
2361.207832
2361.207672
2361.207489
2361.207285
2361.207063
2361.206826
2361.206576
2361.206315
2361.206046
2361.205772
2361.205494
2361.205216
2361.204938
2361.204663
2361.204393
2361.204128
2361.203871
2361.203623
2361.203383
2361.203155
2361.202937
2361.202731
2361.202536
2361.202354
2361.202184
2361.202025
2361.201878
2361.201743
2361.20162
2361.201514
2361.201441
)
;

boundaryField
{
    inlet
    {
        type            fixedValue;
        value           uniform 305;
    }
    outlet
    {
        type            zeroGradient;
    }
    wall
    {
        type            empty;
    }
}


// ************************************************************************* //
