/*--------------------------------*- C++ -*----------------------------------*\
  =========                 |
  \\      /  F ield         | OpenFOAM: The Open Source CFD Toolbox
   \\    /   O peration     | Website:  https://openfoam.org
    \\  /    A nd           | Version:  7
     \\/     M anipulation  |
\*---------------------------------------------------------------------------*/
FoamFile
{
    version     2.0;
    format      ascii;
    class       volVectorField;
    location    "0.000558243009";
    object      U;
}
// * * * * * * * * * * * * * * * * * * * * * * * * * * * * * * * * * * * * * //

dimensions      [0 1 -1 0 0 0 0];

internalField   nonuniform List<vector> 
1500
(
(0.1906261852 0 0)
(0.2056725266 1.024139662e-25 1.024139662e-25)
(0.1902095372 -2.15771034e-27 -2.15771034e-27)
(0.2032923775 -2.270467692e-25 2.954135199e-27)
(0.1924257274 0 2.852954743e-25)
(0.2024277061 0 0)
(0.1948458929 3.875672382e-25 -3.875672382e-25)
(0.2013114303 -5.453817327e-27 -4.191655571e-25)
(0.1965606743 5.784600984e-27 4.503732576e-25)
(0.2000970419 -5.986366228e-27 -4.72068469e-25)
(0.1978472254 -9.311008448e-25 -9.250826614e-25)
(0.1992576765 4.661448071e-25 4.602335605e-25)
(0.1987985829 4.274128752e-25 4.330473117e-25)
(0.1989924249 5.219863927e-27 4.06404487e-25)
(0.1993370025 -3.676339157e-25 -4.662016139e-27)
(0.1993929953 -3.019347715e-25 -3.059150733e-25)
(0.1995570177 2.45711972e-25 0)
(0.1997935998 0 0)
(0.199995198 -1.093323761e-25 -1.093323761e-25)
(0.2001854228 3.505764686e-26 6.967072288e-26)
(0.2003777618 -3.972880605e-26 -3.920507504e-26)
(0.2005616572 1.134937598e-25 2.269875195e-25)
(0.2007300739 0 0)
(0.2008793327 2.52910415e-25 -2.52910415e-25)
(0.2010082085 -3.177539899e-25 -3.096950261e-25)
(0.2011141135 -3.581050427e-25 3.675465936e-25)
(0.2011945135 4.082152519e-25 4.082152519e-25)
(0.2012471642 0 0)
(0.2012712403 -4.797792877e-25 -4.797792877e-25)
(0.2012648023 5.059180853e-25 6.415616218e-27)
(0.2012314759 4.971172821e-25 5.036706155e-25)
(0.2011685582 -1.017550159e-24 0)
(0.2010764758 6.489209541e-27 0)
(0.2009627003 -6.293742448e-27 -4.900138602e-25)
(0.2008191726 -9.27478437e-25 -4.607418344e-25)
(0.2006517998 5.596834741e-27 0)
(0.2004735469 3.92366366e-25 0)
(0.2002816899 3.523428101e-25 0)
(0.200077096 2.970026715e-25 3.008670116e-25)
(0.1998684488 0 2.404920148e-25)
(0.1996590556 0 0)
(0.1994518945 0 0)
(0.1992535348 0 -4.455070864e-26)
(0.1990675167 0 -3.588237845e-28)
(0.1988965617 -1.017221724e-25 -2.021378244e-25)
(0.1987450188 2.255439774e-27 1.778576579e-25)
(0.198615082 -3.18930164e-27 2.419313861e-25)
(0.1985087568 4.091425511e-27 -3.144555277e-25)
(0.1984284359 3.800712115e-25 0)
(0.1983751236 0 0)
(0.1983484067 0 0)
(0.1983490514 0 0)
(0.1983759157 0 0)
(0.1984274704 0 0)
(0.1985036883 0 0)
(0.1986007244 6.523260692e-25 6.523260692e-25)
(0.198716756 -8.390211308e-27 -8.390211308e-27)
(0.1988506399 8.270794433e-27 8.270794433e-27)
(0.1989991902 -8.022757103e-27 -8.022757103e-27)
(0.1991594608 -1.183725278e-24 -1.183725278e-24)
(0.1993288646 7.162947597e-27 7.162947597e-27)
(0.1995050028 5.047907798e-25 5.047907798e-25)
(0.19968456 0 4.57575939e-25)
(0.1998651325 -3.973384972e-25 -5.103440874e-27)
(0.2000450311 4.260849818e-27 4.260849818e-27)
(0.200221729 2.585710281e-25 -3.364295972e-27)
(0.2003928692 1.891213118e-25 2.429086282e-27)
(0.2005569004 1.130222426e-25 1.130222426e-25)
(0.2007120488 -3.921466766e-26 -3.921466766e-26)
(0.2008569251 -4.573646708e-28 -4.573646708e-28)
(0.2009904573 -1.075646238e-25 -1.075646238e-25)
(0.2011115564 1.799485186e-25 3.598970373e-25)
(0.2012192426 4.923974874e-25 4.892148782e-25)
(0.2013128957 -4.005516535e-27 -3.118572547e-25)
(0.2013918833 -7.385522269e-25 -7.385522269e-25)
(0.2014557125 -4.213775342e-25 5.482587627e-27)
(0.2015039993 0 -6.129572382e-27)
(0.201536689 5.226722237e-25 6.713203502e-27)
(0.2015533859 1.11910898e-24 1.11910898e-24)
(0.2015541741 5.910934981e-25 5.910934981e-25)
(0.2015393065 -6.296120191e-25 -6.296120191e-25)
(0.2015083982 -6.473513735e-25 -1.303125533e-24)
(0.2014616772 0 6.860878335e-25)
(0.2013985702 0 6.767039945e-25)
(0.2013199687 0 9.08463579e-27)
(0.20122826 0 -9.192198657e-27)
(0.2011234171 -1.439270378e-24 -2.149662595e-24)
(0.2010051148 1.847206425e-26 1.847206425e-26)
(0.2008750062 1.409495125e-24 1.409495125e-24)
(0.2007346441 7.039566871e-25 0)
(0.2005850273 -8.849988918e-27 0)
(0.2004275274 -6.603765639e-25 0)
(0.2002638201 -6.435939347e-25 0)
(0.2000956159 7.870477075e-27 6.127732038e-25)
(0.1999246129 5.690127218e-25 -7.403529255e-27)
(0.1997525526 0 6.86502256e-27)
(0.1995812508 -4.870435807e-25 -4.932991539e-25)
(0.1994125114 -4.286139524e-25 -8.572279048e-25)
(0.199248076 3.761405998e-25 7.522811997e-25)
(0.1990896318 3.091635788e-25 3.051410112e-25)
(0.1989387877 2.457043877e-25 -2.425485633e-25)
(0.1987970453 -2.236791313e-27 0)
(0.1986657823 -9.778038165e-26 0)
(0.1985462309 0 0)
(0.1984394763 0 0)
(0.1983464426 1.414061043e-25 1.414061043e-25)
(0.1982678944 -2.88188801e-27 2.214934223e-25)
(0.198204423 -3.036202854e-25 -3.075707279e-25)
(0.1981564572 3.902659698e-25 5.012579868e-27)
(0.1981242681 4.656750666e-25 -6.058947899e-27)
(0.1981079588 -5.512535535e-25 -5.441732438e-25)
(0.1981074803 8.067510755e-27 6.281134516e-25)
(0.1981226227 -9.011571646e-27 -9.011571646e-27)
(0.198153045 -7.611838728e-25 -7.611838728e-25)
(0.1981982548 -8.358694993e-25 -8.358694993e-25)
(0.1982576356 1.149969427e-26 9.068356722e-25)
(0.1983304775 1.885600909e-24 9.245190086e-25)
(0.1984159454 -1.279256097e-26 -9.832002366e-25)
(0.1985130823 1.330808763e-26 0)
(0.1986208583 -1.37283964e-26 1.068859729e-24)
(0.1987382046 1.404889354e-26 1.079759008e-24)
(0.1988639607 -1.42654819e-26 -1.110673076e-24)
(0.1989969229 -1.104863599e-24 1.437551095e-26)
(0.1991358725 0 1.105002306e-24)
(0.199279572 -1.111063455e-24 -2.222126909e-24)
(0.1994268158 1.405592866e-26 -1.066243799e-24)
(0.1995764 1.055682567e-24 1.055682567e-24)
(0.1997271346 0 0)
(0.1998778865 -9.95968759e-25 -9.95968759e-25)
(0.2000275864 1.217915353e-26 -9.360545876e-25)
(0.2001752397 8.823302648e-25 8.938103912e-25)
(0.2003199168 0 1.65585286e-24)
(0.2004607643 7.672785246e-25 7.574235811e-25)
(0.2005970226 -8.946027754e-27 -6.965120463e-25)
(0.2007280241 -6.137425184e-25 7.98548016e-27)
(0.2008531974 5.437197168e-25 5.367361811e-25)
(0.2009720707 -5.950863887e-27 -4.633181206e-25)
(0.2010842699 -7.578700907e-25 -7.578700907e-25)
(0.2011895212 3.02639409e-25 3.02639409e-25)
(0.2012876498 2.10904838e-25 2.10904838e-25)
(0.2013785772 -1.335333948e-25 -1.335333948e-25)
(0.2014623204 5.609759478e-26 0)
(0.2015389819 2.046743513e-26 2.020788557e-26)
(0.2016087412 9.046807043e-26 -1.192607696e-27)
(0.2016718494 -1.590536438e-25 -1.590536438e-25)
(0.2017286154 -2.244029259e-25 0)
(0.2017793878 -2.785787751e-25 -2.822033837e-25)
(0.2018245445 3.341831272e-25 4.292256286e-27)
(0.2018644731 3.752852106e-25 3.752852106e-25)
(0.2018995536 4.201666159e-25 0)
(0.201930141 -5.836042882e-27 0)
(0.2019565474 -4.769834694e-25 0)
(0.2019790292 5.071755052e-25 5.071755052e-25)
(0.2019977735 -6.769735133e-27 -6.769735133e-27)
(0.2020128924 -5.367697959e-25 -5.367697959e-25)
(0.2020244096 0 0)
(0.2020322634 0 0)
(0.2020363147 0 0)
(0.2020363475 5.985213623e-25 5.985213623e-25)
(0.2020320946 -7.890131221e-27 -7.890131221e-27)
(0.2020232463 -6.245707246e-25 -6.245707246e-25)
(0.2020094477 0 0)
(0.2019903354 0 -6.796853006e-25)
(0.2019655714 0 9.105734302e-27)
(0.2019348446 -7.421450698e-25 -9.532158538e-27)
(0.2018978833 -7.690592868e-25 -1.548124885e-24)
(0.2018544794 0 1.052324269e-26)
(0.2018044994 0 8.512497445e-25)
(0.2017478878 9.074192549e-25 9.074192549e-25)
(0.2016846693 9.415808474e-25 9.415808474e-25)
(0.2016149476 0 0)
(0.2015388999 0 0)
(0.2014567697 1.093173026e-24 0)
(0.2013688557 -1.460712262e-26 0)
(0.2012754995 -1.164096532e-24 0)
(0.2011770736 0 0)
(0.2010739712 0 0)
(0.2009665987 -1.28868938e-24 -1.28868938e-24)
(0.2008553679 -1.302012996e-24 -1.302012996e-24)
(0.2007406919 1.345887621e-24 1.345887621e-24)
(0.2006229844 1.351787612e-24 1.351787612e-24)
(0.2005026625 -1.389267354e-24 -1.389267354e-24)
(0.2003801492 1.805018199e-26 1.805018199e-26)
(0.2002558772 -1.820384231e-26 1.399105195e-24)
(0.2001302943 1.829979367e-26 0)
(0.2000038694 2.836120748e-24 0)
(0.1998770939 -1.442429645e-24 -1.424137946e-24)
(0.1997504828 -2.793448017e-24 -1.396724008e-24)
(0.1996245732 0 0)
(0.1994999218 0 0)
(0.1993770971 2.688717707e-24 2.688717707e-24)
(0.1992566699 1.271438745e-24 1.271438745e-24)
(0.1991392031 -1.240993474e-24 -1.240993474e-24)
(0.1990252406 0 0)
(0.1989152931 1.136405697e-24 0)
(0.1988098259 -1.366786071e-26 0)
(0.1987092474 -1.956859362e-24 -9.847537519e-25)
(0.1986138994 1.154856096e-26 1.154856096e-26)
(0.1985240499 -1.038250867e-26 -1.038250867e-26)
(0.1984398877 -7.044561736e-25 9.165737157e-27)
(0.1983615212 6.162364768e-25 6.083215028e-25)
(0.1982889821 5.108682815e-25 0)
(0.1982222308 -4.187184483e-25 -4.187184483e-25)
(0.1981611671 4.12256516e-27 -3.16848417e-25)
(0.1981056444 -2.892303484e-27 2.251872606e-25)
(0.1980554861 1.695506711e-27 1.303123039e-25)
(0.1980105028 4.122074371e-26 4.175707297e-26)
(0.1979705094 4.556793654e-26 4.615321279e-26)
(0.197935341 2.588660827e-25 2.571928998e-25)
(0.1979048622 -4.2848816e-25 -4.257539634e-25)
(0.1978789724 -5.76724404e-25 -2.864739594e-25)
(0.1978576014 3.694985202e-25 -4.807575942e-27)
(0.1978406975 -4.540661706e-25 -4.482341446e-25)
(0.1978282068 6.848927244e-27 1.06646971e-24)
(0.1978200465 6.0330163e-25 5.954520069e-25)
(0.1978160738 0 -6.776439316e-25)
(0.1978160567 0 0)
(0.1978196509 0 8.204279484e-25)
(0.1978263899 0 -1.121867303e-26)
(0.1978356932 0 -9.015697165e-25)
(0.1978468979 0 9.377176245e-25)
(0.1978593161 0 -1.214748928e-26)
(0.1978723201 9.385161315e-25 1.205434303e-26)
(0.1978854439 9.078192848e-25 9.078192848e-25)
(0.1978985071 -8.9588094e-25 0)
(0.1979117202 -8.660267139e-25 0)
(0.1979258115 8.769419763e-25 0)
(0.1979420497 -1.169085253e-26 -9.102238809e-25)
(0.197962345 1.276217136e-26 1.276217136e-26)
(0.1979890366 -1.157594341e-24 -1.157594341e-24)
(0.1980250498 -1.335718585e-24 -1.335718585e-24)
(0.1980731279 1.663380365e-24 1.663380365e-24)
(0.1981365346 0 0)
(0.1982168037 -2.557824827e-24 -2.557824827e-24)
(0.1983167999 3.958137952e-26 3.958137952e-26)
(0.1984338264 3.57282066e-24 3.57282066e-24)
(0.1985712968 4.121232666e-24 4.121232666e-24)
(0.19871595 -4.585550185e-24 -4.585550185e-24)
(0.198879837 -4.648436012e-24 -4.648436012e-24)
(0.1990213437 -6.144428212e-26 -6.144428212e-26)
(0.1991942502 5.785650607e-26 4.562384938e-24)
(0.1992676344 7.720719688e-24 3.785504771e-24)
(0.1994576518 -3.729423995e-26 -2.866340463e-24)
(0.1993229668 -1.547845482e-24 0)
(0.1996744757 6.847161394e-26 -6.847161394e-26)
(0.1989516991 1.890183473e-24 1.939370721e-24)
(0.2000440461 -7.626442686e-24 3.715267513e-24)
(0.197648831 -5.456963092e-24 7.19374773e-26)
(0.2026074139 6.813188094e-24 -8.864708748e-26)
(0.1993173807 0 -3.514028668e-23)
(0.1985718873 -9.738655154e-23 9.591622869e-23)
(0.1985421002 -2.837652806e-34 1.635900169e-22)
(0.1985332569 8.10173423e-23 -8.10173423e-23)
(0.1985192448 -8.079065352e-23 -8.079065352e-23)
(0.198505956 -8.938944443e-39 8.938944443e-39)
(0.1984920578 8.013623059e-23 8.013623059e-23)
(0.1984793093 0 5.531180082e-34)
(0.1984662526 -7.923571129e-23 -7.923571129e-23)
(0.1984535204 -5.461754372e-34 1.574243517e-22)
(0.1984409074 7.813887021e-23 -7.813887021e-23)
(0.1984285076 -7.751254018e-23 -7.751254018e-23)
(0.198416303 -1.658330854e-56 1.658330854e-56)
(0.1984043091 7.610135594e-23 7.610135594e-23)
(0.1983925371 -7.531492289e-23 7.531492289e-23)
(0.1983809975 -2.583827968e-34 -1.489475414e-22)
(0.1983697015 7.357729157e-23 7.357729157e-23)
(0.19835866 0 4.837788737e-38)
(0.1983478841 -7.161594303e-23 -7.161594303e-23)
(0.1983373852 -2.447691537e-34 2.447691537e-34)
(0.1983271745 6.942619766e-23 6.942619766e-23)
(0.1983172636 -6.824426436e-23 6.824426436e-23)
(0.1983076638 -4.649157579e-34 -1.34007132e-22)
(0.1982983868 6.570357827e-23 6.570357827e-23)
(0.1982894442 0 2.857438074e-38)
(0.1982808477 -6.292368498e-23 -6.292368498e-23)
(0.1982726091 4.263245863e-34 -4.263245863e-34)
(0.1982647403 5.990065453e-23 5.990065453e-23)
(0.1982572531 -5.829680228e-23 5.829680228e-23)
(0.1982501595 6.287282224e-39 -1.132616075e-22)
(0.1982434716 5.490223978e-23 5.490223978e-23)
(0.1982372014 0 3.685177818e-34)
(0.198231361 -5.125582531e-23 -5.125582531e-23)
(0.1982259625 -3.423567036e-34 3.423567036e-34)
(0.1982210183 4.735455136e-23 4.735455136e-23)
(0.1982165404 -4.530748403e-23 4.530748403e-23)
(0.1982125412 -4.79568727e-39 -8.639142161e-23)
(0.1982090328 4.101894167e-23 4.101894167e-23)
(0.1982060277 0 -2.690688402e-34)
(0.198203538 -3.6469358e-23 -3.6469358e-23)
(0.1982015762 1.183020722e-34 6.819213723e-23)
(0.1982001545 3.165683211e-23 -3.165683211e-23)
(0.1981992853 -2.915146534e-23 -2.915146534e-23)
(0.1981989809 -1.844374219e-34 1.844374219e-34)
(0.1981992536 2.394172316e-23 2.394172316e-23)
(0.1982001158 0 2.947238837e-34)
(0.1982015796 -1.846583357e-23 -1.846583357e-23)
(0.1982036574 5.42183563e-35 3.125575465e-23)
(0.1982063614 1.272318151e-23 -1.272318151e-23)
(0.1982097038 -9.75173182e-24 -9.75173182e-24)
(0.1982136967 -2.329376286e-35 2.329376286e-35)
(0.1982183523 3.608643057e-24 3.608643057e-24)
(0.1982236826 0 6.066024374e-36)
(0.1982296996 2.800987876e-24 2.800987876e-24)
(0.1982364153 2.11841022e-35 -1.221102198e-23)
(0.1982438416 -9.476321901e-24 9.4763219e-24)
(0.1982519901 1.291324496e-23 1.291324496e-23)
(0.1982608728 1.82255063e-39 -1.82255063e-39)
(0.1982705012 -1.998458467e-23 -1.998458467e-23)
(0.1982808869 0 0)
(0.1982920413 2.731754664e-23 2.731754664e-23)
(0.1983039758 1.078352225e-34 -6.216277346e-23)
(0.1983167015 -3.490967011e-23 3.490967011e-23)
(0.1983302297 3.880201105e-23 3.880201105e-23)
(0.1983445713 -1.483560895e-34 1.483560895e-34)
(0.1983597373 -4.677717028e-23 -4.677717028e-23)
(0.1983757383 0 -3.529055954e-34)
(0.1983925849 5.500314006e-23 5.500314006e-23)
(0.1984102876 -6.720418416e-79 -1.184177408e-22)
(0.1984288567 -6.347567143e-23 6.347567143e-23)
(0.1984483023 6.780292693e-23 6.780292693e-23)
(0.1984686343 5.009186342e-34 -5.009186342e-34)
(0.1984898627 -7.663616015e-23 -7.663616015e-23)
(0.1985119969 8.114074045e-23 -8.114074045e-23)
(0.1985350464 -2.973323847e-34 1.714059352e-22)
(0.1985590204 -9.032205096e-23 -9.032205096e-23)
(0.198583928 0 6.591119922e-34)
(0.1986097779 9.972745783e-23 9.972745783e-23)
(0.1986365787 3.625872946e-34 -3.625872946e-34)
(0.1986643388 -1.093499144e-22 -1.093499144e-22)
(0.1986930664 1.1424018e-22 -1.1424018e-22)
(0.1987227694 -4.134949364e-34 2.383636021e-22)
(0.1987534553 -1.241737335e-22 -1.241737335e-22)
(0.1987851316 0 -8.96637112e-34)
(0.1988178055 0 1.343041515e-22)
(0.1988514838 0 -9.675618314e-34)
(0.1988861731 0 -1.446223025e-22)
(0.1989218797 1.498487554e-22 -1.498487554e-22)
(0.1989586098 1.076350385e-33 3.102368762e-22)
(0.1989963689 -1.604300331e-22 -1.604300331e-22)
(0.1990351625 0 -3.681103995e-38)
(0.1990749958 1.711735048e-22 1.711735048e-22)
(0.1991158735 -3.921364463e-38 3.921364463e-38)
(0.1991578002 -1.820678636e-22 -1.820678636e-22)
(0.19920078 1.875679162e-22 -1.875679162e-22)
(0.1992448166 1.339865597e-33 3.862023234e-22)
(0.1992899135 -1.986660066e-22 -1.986660066e-22)
(0.1993360738 0 -1.417344148e-33)
(0.1993833003 0 2.098839262e-22)
(0.1994315953 0 -4.310672305e-22)
(0.1994809608 0 2.21208134e-22)
(0.1995313985 2.269056899e-22 2.269056899e-22)
(0.1995829094 2.582650183e-38 -2.582650183e-38)
(0.1996354944 -2.383625361e-22 -2.383625361e-22)
(0.1996891539 0 1.693909198e-33)
(0.199743888 2.49889015e-22 2.49889015e-22)
(0.1997996962 8.515636758e-38 -5.113469137e-22)
(0.1998565776 -2.614693368e-22 2.614693368e-22)
(0.1999145309 2.672745854e-22 2.672745854e-22)
(0.1999735545 9.474611587e-34 -9.474611587e-34)
(0.200033646 -2.789046867e-22 -2.789046867e-22)
(0.2000948029 0 1.975614731e-33)
(0.2001570221 2.905463935e-22 2.905463935e-22)
(0.2002203 1.028193199e-33 -5.927319924e-22)
(0.2002846325 -3.021817006e-22 3.021817006e-22)
(0.2003500152 3.07991161e-22 3.07991161e-22)
(0.2004164429 3.483790936e-38 -3.483790936e-38)
(0.2004839102 -3.195817675e-22 -3.195817675e-22)
(0.2005524111 0 2.257624851e-33)
(0.200621939 3.311182787e-22 3.311182787e-22)
(0.2006924868 -1.168568228e-33 -6.737199561e-22)
(0.2007640472 -3.425805562e-22 3.425805562e-22)
(0.2008366118 3.482774037e-22 3.482774037e-22)
(0.2009101722 -1.228003372e-33 1.228003372e-33)
(0.200984719 -3.595892847e-22 -3.595892847e-22)
(0.2010602426 0 -3.651989217e-22)
(0.2011367329 0 7.415480663e-22)
(0.2012141788 0 -3.763118313e-22)
(0.2012925691 0 2.649335596e-33)
(0.2013718919 3.872641791e-22 3.872641791e-22)
(0.2014521345 1.362358104e-33 -1.362358104e-33)
(0.2015332839 -3.980330072e-22 -3.980330072e-22)
(0.2016153264 4.033412841e-22 -4.033412841e-22)
(0.2016982478 1.417688849e-33 8.171896801e-22)
(0.2017820331 -4.137906601e-22 -4.137906601e-22)
(0.201866667 0 1.860403833e-37)
(0.2019521334 4.239968925e-22 4.239968925e-22)
(0.2020384155 -4.762869369e-38 4.762869369e-38)
(0.2021254963 -4.339352964e-22 -4.339352964e-22)
(0.2022133576 4.387962242e-22 -4.387962242e-22)
(0.2023019812 3.077959664e-33 8.871614717e-22)
(0.2023913478 -4.482856222e-22 -4.482856222e-22)
(0.2024814378 0 -6.28555739e-33)
(0.2025722307 4.574435615e-22 4.574435615e-22)
(0.2026637055 3.205006238e-33 -3.205006238e-33)
(0.2027558406 -4.662438924e-22 -4.662438924e-22)
(0.2028486139 4.705016836e-22 -4.705016836e-22)
(0.2029420022 1.646913449e-33 9.493202093e-22)
(0.2030359822 -4.787157909e-22 -4.787157909e-22)
(0.2031305296 0 -1.071732388e-37)
(0.2032256196 4.865054035e-22 4.865054035e-22)
(0.2033212268 5.44267417e-38 -5.44267417e-38)
(0.203417325 -4.938432388e-22 -4.938432388e-22)
(0.2035138876 4.973341467e-22 -4.973341467e-22)
(0.2036108869 1.737102618e-33 1.001403527e-21)
(0.203708295 -5.039426167e-22 -5.039426167e-22)
(0.2038060834 0 -3.51861369e-33)
(0.2039042224 5.100300766e-22 5.100300766e-22)
(0.2040026821 -1.77931718e-33 -1.025739344e-21)
(0.2041014319 -5.155684964e-22 5.155684964e-22)
(0.2042004406 5.181230267e-22 5.181230267e-22)
(0.204299676 1.805892507e-33 -1.805892507e-33)
(0.2043991057 -5.227850859e-22 -5.227850859e-22)
(0.2044986964 0 -3.642125118e-33)
(0.2045984142 5.268275775e-22 5.268275775e-22)
(0.2046982246 -1.833917489e-33 -1.057215286e-21)
(0.2047980925 -5.302222047e-22 5.302222047e-22)
(0.2048979819 5.316677263e-22 5.316677263e-22)
(0.2049978566 1.183366018e-37 -1.183366018e-37)
(0.2050976793 -5.340375269e-22 -5.340375269e-22)
(0.2051974125 0 3.711637961e-33)
(0.2052970178 5.356888579e-22 5.356888579e-22)
(0.2053964562 -1.860443466e-33 -1.07247264e-21)
(0.2054956883 -5.365936529e-22 5.365936529e-22)
(0.2055946738 5.367573755e-22 5.367573755e-22)
(0.2056933719 3.085160902e-57 -3.085160902e-57)
(0.2057917414 -5.364901326e-22 -5.364901326e-22)
(0.2058897401 0 -3.7196099e-33)
(0.2059873256 5.354070448e-22 5.354070448e-22)
(0.2060844547 1.854715131e-33 -1.069102057e-21)
(0.2061810836 -5.334808542e-22 5.334808541e-22)
(0.2062771681 5.321931714e-22 5.321931714e-22)
(0.2063726633 1.841123334e-33 -1.841123334e-33)
(0.2064675238 -5.289519955e-22 -5.289519955e-22)
(0.2065617036 5.269919247e-22 -5.269919247e-22)
(0.2066551561 5.826463746e-38 1.049602398e-21)
(0.2067478344 -5.223766063e-22 -5.223766063e-22)
(0.2068396908 0 -2.307998086e-37)
(0.2069306773 5.168131344e-22 5.168131344e-22)
(0.2070207452 1.782200928e-33 -1.782200928e-33)
(0.2071098455 -5.102765111e-22 -5.102765111e-22)
(0.2071979285 5.066356189e-22 -5.066356189e-22)
(0.2072849443 -1.744182089e-33 1.005484695e-21)
(0.2073708423 -4.985937507e-22 -4.985937507e-22)
(0.2074555714 0 -3.429220407e-33)
(0.2075390803 4.895190387e-22 4.895190387e-22)
(0.2076213172 -1.681142248e-33 1.681142248e-33)
(0.2077022297 -4.79388891e-22 -4.79388891e-22)
(0.2077817651 4.739211865e-22 -4.739211865e-22)
(0.2078598704 1.624226997e-33 9.363630439e-22)
(0.207936492 -4.621673109e-22 -4.621673109e-22)
(0.2080115762 0 3.163174162e-33)
(0.2080850688 4.493052045e-22 4.493052045e-22)
(0.2081569152 -9.824417639e-38 9.824417639e-38)
(0.2082270605 -4.353153826e-22 -4.353153826e-22)
(0.2082954497 4.278917693e-22 -4.278917693e-22)
(0.2083620272 1.457836752e-33 8.403587794e-22)
(0.2084267373 -4.121761059e-22 -4.121761059e-22)
(0.2084895239 0 -2.802658795e-33)
(0.2085503309 3.952886319e-22 3.952886319e-22)
(0.2086091016 -1.340596144e-33 -7.728010616e-22)
(0.2086657794 -3.772137097e-22 3.772137097e-22)
(0.2087203074 3.677264042e-22 3.677264042e-22)
(0.2087726285 -7.947796437e-38 7.947796437e-38)
(0.2088226854 -3.47843693e-22 -3.47843693e-22)
(0.2088704208 0 -2.341571203e-33)
(0.208915777 3.267399507e-22 3.267399507e-22)
(0.2089586965 1.09546706e-33 -6.314533524e-22)
(0.2089991215 -3.044040995e-22 3.044040995e-22)
(0.2090369941 2.927710611e-22 2.927710611e-22)
(0.2090722567 -9.742814475e-34 9.742814475e-34)
(0.2091048512 -2.685694272e-22 -2.685694272e-22)
(0.2091347198 0 1.776349785e-33)
(0.2091618046 2.431143835e-22 2.431143835e-22)
(0.2091860478 2.552568715e-38 -4.598299005e-22)
(0.2092073915 -2.164001075e-22 2.164001075e-22)
(0.209225778 2.025693815e-22 2.025693815e-22)
(0.2092411497 6.537633658e-34 -6.537633658e-34)
(0.209253449 -1.739589039e-22 -1.739589039e-22)
(0.2092626186 0 1.104489e-33)
(0.2092686013 1.44081843e-22 1.44081843e-22)
(0.2092713399 -4.463792549e-34 -2.573365907e-22)
(0.2092707777 -1.129382667e-22 1.129382667e-22)
(0.2092668581 9.689204511e-23 9.689204511e-23)
(0.2092595247 2.793767893e-34 -2.793767893e-34)
(0.2092487213 -6.385274352e-23 -6.385274352e-23)
(0.2092343924 0 -3.251830644e-34)
(0.2092164823 0 2.955500771e-23)
(0.2091949359 0 -2.387236403e-23)
(0.2091696985 0 -5.994663392e-24)
(0.2091407158 -2.423641867e-23 -2.423641867e-23)
(0.2091079338 -1.484549254e-34 1.484549254e-34)
(0.2090712989 6.16475983e-23 6.16475983e-23)
(0.2090307582 -8.081418228e-23 8.081418228e-23)
(0.2089862591 -1.043788588e-33 -2.00571997e-22)
(0.2089377495 1.200613168e-22 1.200613168e-22)
(0.2088851781 0 6.223389754e-38)
(0.2088284937 -1.605149067e-22 -1.605149067e-22)
(0.2087676461 6.286058315e-34 -6.286058315e-34)
(0.2087025855 2.021586016e-22 2.021586016e-22)
(0.2086332629 -2.23421073e-22 2.23421073e-22)
(0.2085596297 -8.49924372e-34 -4.899480429e-22)
(0.2084816383 2.668148295e-22 2.668148295e-22)
(0.2083992416 0 2.005185891e-33)
(0.2083123932 -3.113489386e-22 -3.113489386e-22)
(0.2082210475 -1.158995666e-33 1.158995666e-33)
(0.2081251599 3.569999591e-22 3.569999591e-22)
(0.2080246865 -3.802363993e-22 3.802363993e-22)
(0.2079195829 1.400763083e-33 -8.074849408e-22)
(0.2078098076 4.275150175e-22 4.275150175e-22)
(0.2076953436 0 3.133031704e-33)
(0.2075760767 -4.758379292e-22 -4.758379292e-22)
(0.2074517346 -3.472712592e-33 3.472712592e-33)
(0.2073252093 5.251555555e-22 5.251555555e-22)
(0.2072018083 -5.493639036e-22 5.493639036e-22)
(0.2070829976 -1.987732167e-33 -1.145849581e-21)
(0.2069674039 5.960325074e-22 5.960325074e-22)
(0.2068539412 0 -4.294561098e-33)
(0.2067416242 -6.41713299e-22 -6.41713299e-22)
(0.2066295218 4.610554587e-33 1.328901883e-21)
(0.2065166986 6.871540853e-22 -6.871540853e-22)
(0.2064021874 -7.098516807e-22 -7.098516807e-22)
(0.2062850039 -2.541542023e-33 2.541542023e-33)
(0.2061641489 7.553480148e-22 7.553480148e-22)
(0.2060386066 0 0)
(0.2059073416 -8.011798498e-22 -8.011798498e-22)
(0.2057693035 2.859768776e-33 1.648597215e-21)
(0.2056234461 8.475944518e-22 -8.475944518e-22)
(0.2054686813 -8.710907307e-22 -8.710907307e-22)
(0.2053037457 -6.210449547e-33 6.210449547e-33)
(0.2051273444 9.196330519e-22 9.196330519e-22)
(0.2049383397 0 0)
(0.204735461 -9.712242224e-22 -9.712242224e-22)
(0.2045172189 3.46403115e-33 1.996878002e-21)
(0.2042857834 1.026384176e-21 -1.026384176e-21)
(0.2040471106 -1.054456605e-21 -1.054456605e-21)
(0.2038039059 6.586037251e-55 -6.586037251e-55)
(0.2035557582 1.110491587e-21 1.110491587e-21)
(0.2033026201 0 2.528045472e-37)
(0.2030445362 -1.166565773e-21 -1.166565773e-21)
(0.202781514 4.144563215e-33 2.389178029e-21)
(0.2025135638 1.222590765e-21 -1.222590765e-21)
(0.2022407002 -1.250561102e-21 -1.250561102e-21)
(0.2019629403 -1.41940897e-37 1.41940897e-37)
(0.2016803035 1.306366976e-21 1.306366976e-21)
(0.2013928118 -1.334181658e-21 1.334181658e-21)
(0.2011004899 -9.450240682e-33 -2.723846426e-21)
(0.2008033651 1.389580645e-21 1.389580645e-21)
(0.2005014673 0 6.293377989e-37)
(0.2001948291 -1.444598054e-21 -1.444598054e-21)
(0.1998834858 1.021311014e-32 -1.021311014e-32)
(0.1995674756 1.49914154e-21 1.49914154e-21)
(0.199246839 -1.526205774e-21 1.526205774e-21)
(0.1989216198 5.388451386e-33 -3.10623074e-21)
(0.198591864 1.579857849e-21 1.579857849e-21)
(0.198257621 0 0)
(0.1979189425 0 -1.632790545e-21)
(0.1975758836 0 5.756024118e-33)
(0.1972285016 0 1.684900115e-21)
(0.1968768573 -1.710612981e-21 1.710612981e-21)
(0.1965210141 -3.854871528e-37 -3.472159595e-21)
(0.1961610385 1.76128677e-21 1.76128677e-21)
(0.1957969998 0 -1.239320069e-32)
(0.1954289702 -1.810865123e-21 -1.810865123e-21)
(0.1950570252 -1.273431399e-32 1.273431399e-32)
(0.1946812431 1.859234252e-21 1.859234252e-21)
(0.1943017053 -1.882929083e-21 1.882929083e-21)
(0.1939184961 1.581558173e-78 -3.812555535e-21)
(0.1935317031 1.929265374e-21 1.929265374e-21)
(0.1931414168 0 -1.354386619e-32)
(0.1927477309 0 -1.974096897e-21)
(0.1923507422 0 3.991820481e-21)
(0.1919505507 0 -2.017301364e-21)
(0.1915472593 -2.038254656e-21 -2.038254656e-21)
(0.1911409744 4.57135302e-37 -4.57135302e-37)
(0.1907318054 2.078784667e-21 2.078784667e-21)
(0.1903198649 0 1.456055213e-32)
(0.1899052687 -2.117372984e-21 -2.117372984e-21)
(0.1894881359 -7.409913148e-33 4.271797503e-21)
(0.1890685888 2.153890585e-21 -2.153890585e-21)
(0.1886467529 -2.171332117e-21 -2.171332117e-21)
(0.188222757 -1.518324956e-32 1.518324956e-32)
(0.1877967334 2.204498358e-21 2.204498358e-21)
(0.1873688173 0 1.540566222e-32)
(0.1869391475 -2.235264856e-21 -2.235264856e-21)
(0.1865078661 -7.804987411e-33 4.499412896e-21)
(0.1860751184 2.26349787e-21 -2.26349787e-21)
(0.1856410532 -2.276622258e-21 -2.276622258e-21)
(0.1852058227 2.836885496e-55 -2.836885496e-55)
(0.1847695823 2.300802244e-21 2.300802244e-21)
(0.184332491 0 1.604150075e-32)
(0.1838947112 -2.322110641e-21 -2.322110641e-21)
(0.1834564088 -5.177292893e-37 4.663290869e-21)
(0.1830177531 2.340411218e-21 -2.340411218e-21)
(0.182578917 -2.34839092e-21 -2.34839092e-21)
(0.1821400769 -8.172516373e-33 8.172516373e-33)
(0.1817014129 2.361923791e-21 2.361923791e-21)
(0.1812631087 0 -3.285329212e-32)
(0.1808253516 -2.372107517e-21 -2.372107517e-21)
(0.1803883327 8.243325718e-33 4.751801687e-21)
(0.179952247 2.378805801e-21 -2.378805801e-21)
(0.1795172933 -2.380805426e-21 -2.380805426e-21)
(0.1790836742 -7.933263343e-37 7.933263343e-37)
(0.1786515967 2.382021007e-21 2.382021007e-21)
(0.1782212716 -2.381203254e-21 2.381203254e-21)
(0.1777929143 -1.651049269e-32 -4.758825519e-21)
(0.1773667444 2.376632812e-21 2.376632812e-21)
(0.1769429861 0 1.646440513e-32)
(0.1765218683 -2.368038079e-21 -2.368038079e-21)
(0.1761036251 -8.194969217e-33 8.194969217e-33)
(0.1756884955 2.355286854e-21 2.355286854e-21)
(0.175276724 0 2.347311602e-21)
(0.1748685608 0 -4.676496513e-21)
(0.1744642623 0 2.328080681e-21)
(0.1740640913 0 3.215195935e-32)
(0.1736683172 -2.304368769e-21 -2.304368769e-21)
(0.1732772171 -7.94778352e-33 7.94778352e-33)
(0.1728910759 2.276048665e-21 2.276048665e-21)
(0.172510187 -2.260121198e-21 2.260121198e-21)
(0.172134853 -7.782199955e-33 -4.485989289e-21)
(0.1717653868 2.224653499e-21 2.224653499e-21)
(0.1714021121 0 1.530181158e-32)
(0.1710453645 -2.184265752e-21 -2.184265752e-21)
(0.170695493 -7.501838151e-33 7.501838151e-33)
(0.1703528609 2.138835091e-21 2.138835091e-21)
(0.1700178478 -2.114190399e-21 2.114190399e-21)
(0.1696908507 -7.244570926e-33 -4.176478101e-21)
(0.1693722862 2.060965678e-21 2.060965678e-21)
(0.169062593 0 1.410229452e-32)
(0.1687622337 -2.002390917e-21 -2.002390917e-21)
(0.1684716981 -5.695440224e-79 3.942116381e-21)
(0.1681915059 1.938340654e-21 -1.938340654e-21)
(0.1679222106 0 -1.90422201e-21)
(0.1676644034 0 0)
(0.1674187173 0 1.831714226e-21)
(0.1671858328 0 -1.244345059e-32)
(0.1669664829 -1.753395163e-21 -1.753395163e-21)
(0.1667614604 5.939727209e-33 3.424019616e-21)
(0.1665716242 1.669113935e-21 -1.669113935e-21)
(0.1663979082 -1.624686168e-21 -1.624686168e-21)
(0.16624133 -5.477053697e-33 5.477053697e-33)
(0.1661030016 1.531142395e-21 1.531142395e-21)
(0.1659841407 0 2.056588865e-32)
(0.1658860839 -1.431175895e-21 -1.431175895e-21)
(0.1658103013 -1.53067742e-37 2.757423304e-21)
(0.1657584131 1.324549515e-21 -1.324549515e-21)
(0.1657322075 0 -1.268652593e-21)
(0.1657336616 0 1.344458182e-37)
(0.1657649643 0 1.151487705e-21)
(0.1658285418 0 1.512804251e-32)
(0.1659270862 -1.026837751e-21 -1.026837751e-21)
(0.1660635872 -3.336095433e-33 1.923128083e-21)
(0.1662413672 8.942359978e-22 -8.942359978e-22)
(0.1664641199 -8.247778273e-22 -8.247778273e-22)
(0.1667359538 -2.612774863e-33 2.612774863e-33)
(0.1670614387 6.791242422e-22 6.791242422e-22)
(0.167445658 -6.027307783e-22 6.027307783e-22)
(0.1678942645 -3.634656017e-33 -1.047618271e-21)
(0.1684135416 4.422316039e-22 4.422316039e-22)
(0.1690104705 0 4.966422037e-33)
(0.1696928008 -2.705296646e-22 -2.705296646e-22)
(0.1704691261 -6.248165456e-34 6.248165456e-34)
(0.1713489642 8.632134257e-23 8.632134257e-23)
(0.1723428415 1.094578515e-23 -1.094578515e-23)
(0.1734623822 3.883882395e-34 2.238762486e-22)
(0.1747203933 -2.168859327e-22 -2.168859327e-22)
(0.1761309537 0 -2.262300016e-33)
(0.1777095069 4.396289617e-22 4.396289617e-22)
(0.1794729429 5.807077972e-33 -5.807077972e-33)
(0.1814396769 -6.812185908e-22 -6.812185908e-22)
(0.1836297187 8.097299351e-22 -8.097299351e-22)
(0.1860647282 3.274172426e-33 1.8874319e-21)
(0.1887680555 -1.083398758e-21 -1.083398758e-21)
(0.1917647591 0 -8.527666274e-33)
(0.1950815995 1.380558317e-21 1.380558317e-21)
(0.1987470032 1.067342347e-32 -1.067342347e-32)