/*--------------------------------*- C++ -*----------------------------------*\
  =========                 |
  \\      /  F ield         | OpenFOAM: The Open Source CFD Toolbox
   \\    /   O peration     | Website:  https://openfoam.org
    \\  /    A nd           | Version:  7
     \\/     M anipulation  |
\*---------------------------------------------------------------------------*/
FoamFile
{
    version     2.0;
    format      ascii;
    class       volVectorField;
    location    "0.000558243009";
    object      U_0;
}
// * * * * * * * * * * * * * * * * * * * * * * * * * * * * * * * * * * * * * //

dimensions      [0 1 -1 0 0 0 0];

internalField   nonuniform List<vector> 
1500
(
(0.1906094091 0 0)
(0.2055920847 6.899013052e-26 6.899013052e-26)
(0.1900733095 -1.462202532e-27 -1.462202532e-27)
(0.2031127307 -1.541777373e-25 2.006026698e-27)
(0.1921968522 0 1.947632768e-25)
(0.2021622836 0 0)
(0.1945430066 2.685814867e-25 -2.685814867e-25)
(0.2009843183 -3.8167851e-27 -2.933477153e-25)
(0.1962127652 4.089047297e-27 3.183620714e-25)
(0.1997409719 -4.279183592e-27 -3.374447153e-25)
(0.1974893085 -6.728064055e-25 -6.684577119e-25)
(0.1989091189 3.408261501e-25 3.365040867e-25)
(0.1984671192 3.161921258e-25 3.203603775e-25)
(0.1986872313 3.911877865e-27 3.0456823e-25)
(0.1990655842 -2.794778411e-25 -3.544096858e-27)
(0.1991620897 -2.335089013e-25 -2.365871685e-25)
(0.1993722269 1.944819183e-25 0)
(0.1996590817 0 0)
(0.199913713 -9.696069456e-26 -9.696069456e-26)
(0.200158265 4.309057906e-26 8.563472056e-26)
(0.2004047683 -1.241151008e-26 -1.224789346e-26)
(0.2006413072 6.653862943e-26 1.330772589e-25)
(0.2008596125 0 0)
(0.2010549321 1.694136319e-25 -1.694136319e-25)
(0.201225157 -2.172010988e-25 -2.116923849e-25)
(0.2013670144 -2.477760245e-25 2.543087165e-25)
(0.2014774851 2.846840489e-25 2.846840489e-25)
(0.2015540296 0 0)
(0.2015956949 -3.378427848e-25 -3.378427848e-25)
(0.2016005587 3.575518165e-25 4.534163334e-27)
(0.2015723782 3.526485047e-25 3.572973538e-25)
(0.2015086623 -7.250170693e-25 0)
(0.2014101132 4.649684316e-27 0)
(0.2012845085 -4.543351609e-27 -3.537331372e-25)
(0.2011241107 -6.762570414e-25 -3.359430229e-25)
(0.2009351697 4.136023327e-27 0)
(0.2007309956 2.952550442e-25 0)
(0.2005092203 2.717701137e-25 0)
(0.2002710957 2.371519335e-25 2.40237548e-25)
(0.2000257202 0 2.020755884e-25)
(0.1997768582 0 0)
(0.1995280008 0 0)
(0.1992862877 0 -7.681741203e-26)
(0.1990558855 0 3.642222111e-28)
(0.1988401969 -2.214136386e-26 -4.399834385e-26)
(0.1986442931 9.503603989e-28 7.49427569e-26)
(0.1984711157 -1.62357979e-27 1.231601628e-25)
(0.1983234261 2.292840489e-27 -1.762213106e-25)
(0.1982043591 2.264328983e-25 0)
(0.1981156247 0 0)
(0.1980574594 0 0)
(0.1980312043 0 0)
(0.1980361991 0 0)
(0.1980712949 0 0)
(0.1981367308 0 0)
(0.1982288099 4.732228174e-25 4.732228174e-25)
(0.1983457409 -6.204457659e-27 -6.204457659e-27)
(0.1984862939 6.233410792e-27 6.233410792e-27)
(0.1986470838 -6.164071246e-27 -6.164071246e-27)
(0.198824861 -9.279139469e-25 -9.279139469e-25)
(0.1990166395 5.737177726e-27 5.737177726e-27)
(0.1992195376 4.140987837e-25 4.140987837e-25)
(0.1994296858 0 3.859003038e-25)
(0.1996440709 -3.465721443e-25 -4.451394616e-27)
(0.1998603541 3.882137567e-27 3.882137567e-27)
(0.2000753358 2.505173075e-25 -3.259508132e-27)
(0.2002859813 2.020355723e-25 2.594957873e-27)
(0.2004900742 1.460570336e-25 1.460570336e-25)
(0.2006852051 -9.24778921e-26 -9.24778921e-26)
(0.2008693945 4.689932421e-28 4.689932421e-28)
(0.2010410401 -1.881509401e-26 -1.881509401e-26)
(0.2011985926 7.344169848e-26 1.46883397e-25)
(0.2013406897 2.502168158e-25 2.485995404e-25)
(0.2014664115 -2.259006419e-27 -1.75879324e-25)
(0.2015749078 -4.428198931e-25 -4.428198931e-25)
(0.2016655466 -2.630171277e-25 3.422143644e-27)
(0.2017378764 0 -3.935860946e-27)
(0.2017918369 3.427069533e-25 4.401729066e-27)
(0.2018270762 7.456569586e-25 7.456569586e-25)
(0.2018437591 3.989092243e-25 3.989092243e-25)
(0.201842242 -4.294285767e-25 -4.294285767e-25)
(0.2018222534 -4.456097162e-25 -8.970173273e-25)
(0.2017841334 0 4.762790314e-25)
(0.2017274085 0 4.736356751e-25)
(0.2016530532 0 6.412200713e-27)
(0.2015635139 0 -6.54685134e-27)
(0.201458796 -1.035331146e-24 -1.546347838e-24)
(0.2013385834 1.343759497e-26 1.343759497e-26)
(0.2012045166 1.03850576e-24 1.03850576e-24)
(0.2010581179 5.262848545e-25 0)
(0.2009003453 -6.727614569e-27 0)
(0.2007325263 -5.116870219e-25 0)
(0.2005562962 -5.097252273e-25 0)
(0.2003733373 6.392501968e-27 4.977022198e-25)
(0.200185338 4.758529196e-25 -6.191409922e-27)
(0.1999940556 0 5.940824201e-27)
(0.1998013512 -4.389980799e-25 -4.446365581e-25)
(0.1996091072 -4.060097657e-25 -8.120195314e-25)
(0.1994191788 3.79343164e-25 7.58686328e-25)
(0.1992334019 3.38733718e-25 3.343264094e-25)
(0.1990535677 3.027501991e-25 -2.98861679e-25)
(0.1988813907 -3.31773802e-27 0)
(0.198718488 -2.07341074e-25 0)
(0.198566353 0 0)
(0.1984263489 0 0)
(0.1982996888 -4.541810611e-26 -4.541810611e-26)
(0.1981874322 -1.887895741e-28 1.450981048e-26)
(0.1980904672 -7.565798275e-26 -7.664237848e-26)
(0.1980095165 1.398874854e-25 1.796716207e-27)
(0.1979451391 2.012692766e-25 -2.618735998e-27)
(0.1978977179 -2.68085595e-25 -2.646422992e-25)
(0.1978674728 4.263133883e-27 3.319154841e-25)
(0.1978544513 -5.070959713e-27 -5.070959713e-27)
(0.197858556 -4.503509709e-25 -4.503509709e-25)
(0.1978795236 -5.1555388e-25 -5.1555388e-25)
(0.1979169503 7.350514997e-27 5.796422978e-25)
(0.1979703208 1.243731869e-24 6.098075943e-25)
(0.1980389747 -8.68013137e-27 -6.671304701e-25)
(0.1981221069 9.267780613e-27 0)
(0.1982188141 -9.795600328e-27 7.626617413e-25)
(0.1983281261 1.02580102e-26 7.884022252e-25)
(0.1984489506 -1.064959428e-26 -8.291495316e-25)
(0.1985801196 -8.428034422e-25 1.096581526e-26)
(0.1987204159 0 8.610119082e-25)
(0.1988685682 -8.842449857e-25 -1.768489971e-24)
(0.1990233024 1.142719065e-26 -8.66835018e-25)
(0.199183312 8.770411344e-25 8.770411344e-25)
(0.1993472716 0 0)
(0.1995138826 -8.659450872e-25 -8.659450872e-25)
(0.1996818827 1.085164785e-26 -8.340263324e-25)
(0.1998500601 8.07031753e-25 8.175321596e-25)
(0.2000172467 0 1.558319641e-24)
(0.200182333 7.452242684e-25 7.356525903e-25)
(0.2003442886 -9.004095022e-27 -7.010329971e-25)
(0.2005021629 -6.437180132e-25 8.375495048e-27)
(0.2006550926 5.989270821e-25 5.912344631e-25)
(0.2008023071 -6.962745963e-27 -5.421005143e-25)
(0.2009431299 -9.582493005e-25 -9.582493005e-25)
(0.2010769832 4.253286275e-25 4.253286275e-25)
(0.201203391 3.46776297e-25 3.46776297e-25)
(0.201321979 -2.87144715e-25 -2.87144715e-25)
(0.2014324792 2.255496789e-25 0)
(0.201534725 -1.627345162e-25 -1.606708638e-25)
(0.2016286485 -9.450322152e-26 1.245801626e-27)
(0.2017142818 3.481160275e-26 3.481160275e-26)
(0.2017917497 -2.380015318e-26 0)
(0.2018612586 -7.849985794e-26 -7.952122526e-26)
(0.2019230922 1.3128336e-25 1.686206698e-27)
(0.2019775969 1.762630067e-25 1.762630067e-25)
(0.2020251678 2.209182693e-25 0)
(0.2020662341 -3.314750219e-27 0)
(0.2021012392 -2.861655481e-25 0)
(0.2021306258 3.163757834e-25 3.163757834e-25)
(0.2021548157 -4.337847055e-27 -4.337847055e-27)
(0.2021741961 -3.497775302e-25 -3.497775302e-25)
(0.2021890952 0 0)
(0.2021997728 0 0)
(0.2022064142 0 0)
(0.2022091166 3.860977284e-25 3.860977284e-25)
(0.2022079004 -5.005406597e-27 -5.005406597e-27)
(0.2022027056 -3.884942835e-25 -3.884942835e-25)
(0.2021933774 0 0)
(0.2021796952 0 -4.058075852e-25)
(0.2021614014 0 5.342289098e-27)
(0.202138201 -4.296480736e-25 -5.518427219e-27)
(0.2021097768 -4.416588102e-25 -8.890640897e-25)
(0.2020758189 0 6.029906436e-27)
(0.2020360447 0 4.895368964e-25)
(0.2019902129 5.265545939e-25 5.265545939e-25)
(0.2019381394 5.538725281e-25 5.538725281e-25)
(0.2018797084 0 0)
(0.2018148802 0 0)
(0.2017436955 6.823341216e-25 0)
(0.2016662733 -9.329067478e-27 0)
(0.201582805 -7.61017263e-25 0)
(0.2014935452 0 0)
(0.2013988013 0 0)
(0.2012989217 -9.017009242e-25 -9.017009242e-25)
(0.2011942827 -9.305594756e-25 -9.305594756e-25)
(0.2010852755 9.817768649e-25 9.817768649e-25)
(0.2009722972 1.005771389e-24 1.005771389e-24)
(0.2008557445 -1.053808832e-24 -1.053808832e-24)
(0.2007360085 1.395582975e-26 1.395582975e-26)
(0.200613473 -1.43476884e-26 1.102730129e-24)
(0.2004885171 1.470961025e-26 0)
(0.2003615206 2.326775262e-24 0)
(0.2002328692 -1.209152722e-24 -1.193819249e-24)
(0.20010296 -2.396076766e-24 -1.198038383e-24)
(0.1999722098 0 0)
(0.1998410603 0 0)
(0.1997099816 2.498718991e-24 2.498718991e-24)
(0.1995794723 1.21916412e-24 1.21916412e-24)
(0.1994500589 -1.231140436e-24 -1.231140436e-24)
(0.1993222911 0 0)
(0.1991967341 1.218123307e-24 0)
(0.1990739582 -1.531357306e-26 0)
(0.1989545272 -2.302048679e-24 -1.158463974e-24)
(0.1988389858 1.434240626e-26 1.434240626e-26)
(0.1987278458 -1.370474519e-26 -1.370474519e-26)
(0.1986215718 -9.969754349e-25 1.29717293e-26)
(0.198520568 9.460982346e-25 9.339464986e-25)
(0.1984251678 8.650855588e-25 0)
(0.1983356234 -8.017503628e-25 -8.017503628e-25)
(0.1982521001 9.29340419e-27 -7.142641274e-25)
(0.1981746748 -8.259874057e-27 6.430924077e-25)
(0.1981033384 7.214530232e-27 5.544903183e-25)
(0.198038003 4.744996923e-25 4.806734788e-25)
(0.1979785153 -4.011053823e-25 -4.062571945e-25)
(0.1979246751 -6.435121204e-25 -6.393527747e-25)
(0.197876257 5.018800086e-25 4.986774963e-25)
(0.1978330356 3.484830272e-25 1.731005518e-25)
(0.1977948104 -1.07023766e-25 1.392495111e-27)
(0.1977614278 4.078480078e-26 4.026096078e-26)
(0.1977327972 3.3847862e-28 5.270565488e-26)
(0.1977088974 9.305128236e-26 9.184058201e-26)
(0.1976897708 0 -1.620058271e-25)
(0.1976755024 0 0)
(0.1976661855 0 3.121148832e-25)
(0.1976618727 0 -5.002587231e-27)
(0.1976625195 0 -4.607505811e-25)
(0.1976679241 0 5.405243372e-25)
(0.1976776738 0 -7.786777577e-27)
(0.1976911094 6.584781659e-25 8.457522914e-27)
(0.1977073114 6.824861099e-25 6.824861099e-25)
(0.1977251329 -6.995393974e-25 0)
(0.1977432556 -6.703230821e-25 0)
(0.1977603307 6.284698831e-25 0)
(0.1977750946 -7.065009569e-27 -5.500659949e-25)
(0.1977866504 5.789159604e-27 5.789159604e-27)
(0.1977945264 -3.470469024e-25 -3.470469024e-25)
(0.1977991833 -2.372448668e-25 -2.372448668e-25)
(0.1978016545 1.736872394e-25 1.736872394e-25)
(0.1978046796 0 0)
(0.1978108603 -2.427455141e-25 -2.427455141e-25)
(0.1978260511 5.545363829e-27 5.545363829e-27)
(0.1978526588 7.453932832e-25 7.453932832e-25)
(0.197901315 1.225510234e-24 1.225510234e-24)
(0.1979678486 -1.866219316e-24 -1.866219316e-24)
(0.1980747611 -2.522377703e-24 -2.522377703e-24)
(0.1981914513 -4.401854269e-26 -4.401854269e-26)
(0.1983822238 5.521802235e-26 4.354322281e-24)
(0.1985249153 1.018404984e-23 4.993287e-24)
(0.1988412992 -7.45964801e-26 -5.7332958e-24)
(0.19889109 -6.157001186e-24 0)
(0.1994804313 -6.301181827e-24 6.301181827e-24)
(0.1990372838 -5.811665554e-24 -5.96289946e-24)
(0.2004321197 9.840164357e-24 -4.793695366e-24)
(0.1983361646 3.234861445e-24 -4.264419015e-26)
(0.2035586045 -1.19339341e-24 1.552736378e-26)
(0.2004806061 0 -1.114084114e-23)
(0.1997695767 -4.391929576e-23 4.325621094e-23)
(0.1997449795 -1.321328806e-34 7.617429491e-23)
(0.1997379516 3.99684894e-23 -3.99684894e-23)
(0.1997280933 -4.225042156e-23 -4.225042156e-23)
(0.1997163746 -4.949089152e-39 4.949089152e-39)
(0.1997046566 4.687735457e-23 4.687735457e-23)
(0.199692728 0 3.412875908e-34)
(0.1996802257 -5.150484001e-23 -5.150484001e-23)
(0.1996672413 -3.735556842e-34 1.076700954e-22)
(0.1996537567 5.617734879e-23 -5.617734879e-23)
(0.1996397984 -5.852597011e-23 -5.852597011e-23)
(0.1996253489 5.54878484e-56 -5.54878484e-56)
(0.199610411 6.324591434e-23 6.324591434e-23)
(0.1995949852 -6.561488931e-23 6.561488931e-23)
(0.1995790713 -2.35883518e-34 -1.359775903e-22)
(0.1995626694 7.036676846e-23 7.036676846e-23)
(0.1995457801 0 4.845985888e-38)
(0.1995284038 -7.513140222e-23 -7.513140222e-23)
(0.1995105414 -2.689385713e-34 2.689385713e-34)
(0.199492194 7.99016007e-23 7.99016007e-23)
(0.1994733628 -8.228646769e-23 8.228646769e-23)
(0.1994540493 -5.874967492e-34 -1.693398279e-22)
(0.199434255 8.705097257e-23 8.705097257e-23)
(0.1994139819 0 3.971430042e-38)
(0.1993932321 -9.180195802e-23 -9.180195802e-23)
(0.1993720079 6.534033783e-34 -6.534033783e-34)
(0.1993503118 9.653136226e-23 9.653136226e-23)
(0.1993281465 -9.888538496e-23 9.888538496e-23)
(0.1993055152 1.123888516e-38 -2.024617561e-22)
(0.1992824209 1.035667676e-22 1.035667676e-22)
(0.1992588673 0 7.347495914e-34)
(0.1992348579 -1.082053626e-22 -1.082053626e-22)
(0.1992103969 -7.668128692e-34 7.668128692e-34)
(0.1991854883 1.127922802e-22 1.127922802e-22)
(0.1991601365 -1.150635233e-22 1.150635233e-22)
(0.1991343464 -1.302496036e-38 -2.346368265e-22)
(0.1991081228 1.195557793e-22 1.195557793e-22)
(0.1990814709 0 -8.449798892e-34)
(0.1990543963 -1.239731827e-22 -1.239731827e-22)
(0.1990269045 4.377015572e-34 2.523016217e-22)
(0.1989990016 1.283060969e-22 -1.283060969e-22)
(0.1989706938 -1.304378056e-22 -1.304378056e-22)
(0.1989419876 -9.197282579e-34 9.197282579e-34)
(0.1989128899 1.346254918e-22 1.346254918e-22)
(0.1988834076 0 1.896801324e-33)
(0.198853548 -1.387037547e-22 -1.387037547e-22)
(0.1988233188 4.881308682e-34 2.813972922e-22)
(0.1987927278 1.426623108e-22 -1.426623108e-22)
(0.1987617831 -1.445934368e-22 -1.445934368e-22)
(0.1987304932 -5.082742562e-34 5.082742562e-34)
(0.1986988667 1.483527827e-22 1.483527827e-22)
(0.1986669127 0 2.084143013e-33)
(0.1986346404 -1.519660032e-22 -1.519660032e-22)
(0.1986020593 -5.333382342e-34 3.074288843e-22)
(0.1985691793 1.554222839e-22 -1.554222839e-22)
(0.1985360104 -1.570881582e-22 -1.570881582e-22)
(0.1985025631 -1.762042574e-38 1.762042574e-38)
(0.1984688481 1.602884802e-22 1.602884802e-22)
(0.1984348763 0 0)
(0.1984006591 -1.633043062e-22 -1.633043062e-22)
(0.1983662079 -5.715550809e-34 3.294790719e-22)
(0.1983315346 1.661244375e-22 -1.661244375e-22)
(0.1982966513 -1.674575998e-22 -1.674575998e-22)
(0.1982615706 5.854636306e-34 -5.854636306e-34)
(0.198226305 1.699630324e-22 1.699630324e-22)
(0.1981908677 0 1.18747002e-33)
(0.1981552719 -1.722444754e-22 -1.722444754e-22)
(0.1981195311 1.560230959e-79 3.465952803e-22)
(0.1980836593 1.742905283e-22 -1.742905283e-22)
(0.1980476708 -1.752217124e-22 -1.752217124e-22)
(0.1980115798 -1.221868204e-33 1.221868204e-33)
(0.1979754011 1.768932563e-22 1.768932563e-22)
(0.19793915 -1.776307558e-22 1.776307558e-22)
(0.1979028415 6.185855082e-34 -3.566016787e-22)
(0.1978664914 1.789020835e-22 1.789020835e-22)
(0.1978301155 0 -1.24494746e-33)
(0.1977937301 -1.798923559e-22 -1.798923559e-22)
(0.1977573516 -6.254468572e-34 6.254468572e-34)
(0.1977209967 1.80590237e-22 1.80590237e-22)
(0.1976846825 -1.808260031e-22 1.808260031e-22)
(0.1976484263 6.279159511e-34 -3.619689015e-22)
(0.1976122456 1.810641841e-22 1.810641841e-22)
(0.1975761584 0 1.256422801e-33)
(0.1975401827 0 -1.809819614e-22)
(0.1975043369 0 1.254671727e-33)
(0.1974686397 0 1.80568321e-22)
(0.19743311 -1.802338148e-22 1.802338148e-22)
(0.197397767 -1.247699076e-33 -3.596247739e-22)
(0.1973626301 1.793027058e-22 1.793027058e-22)
(0.1973277189 0 3.968013666e-38)
(0.1972930537 -1.78013302e-22 -1.78013302e-22)
(0.1972586544 3.935318077e-38 -3.935318077e-38)
(0.1972245415 1.763551707e-22 1.763551707e-22)
(0.1971907356 -1.753846339e-22 1.753846338e-22)
(0.1971572578 -1.209536127e-33 -3.486362093e-22)
(0.1971241291 1.731543455e-22 1.731543455e-22)
(0.197091371 0 1.192741282e-33)
(0.197059005 0 -1.705302639e-22)
(0.197027053 0 3.381351007e-22)
(0.196995537 0 -1.675028255e-22)
(0.1969644793 -1.658349394e-22 -1.658349394e-22)
(0.1969339022 -1.821462618e-38 1.821462618e-38)
(0.1969038284 1.621852024e-22 1.621852024e-22)
(0.1968742809 0 -1.111618837e-33)
(0.1968452826 -1.581095727e-22 -1.581095727e-22)
(0.1968168567 -5.192826509e-38 3.118188204e-22)
(0.1967890267 1.535996559e-22 -1.535996559e-22)
(0.1967618162 -1.511793188e-22 -1.511793188e-22)
(0.1967352487 -5.157244041e-34 5.157244041e-34)
(0.1967093483 1.460030819e-22 1.460030819e-22)
(0.196684139 0 -9.939323782e-34)
(0.196659645 -1.403733211e-22 -1.403733211e-22)
(0.1966358905 -4.766388455e-34 2.747723802e-22)
(0.1966129002 1.342831212e-22 -1.342831212e-22)
(0.1965906984 -1.310633231e-22 -1.310633231e-22)
(0.1965693101 -1.418043895e-38 1.418043895e-38)
(0.1965487598 1.242705459e-22 1.242705459e-22)
(0.1965290727 0 -8.374977739e-34)
(0.1965102736 -1.170021916e-22 -1.170021916e-22)
(0.1964923876 3.926496795e-34 2.263761058e-22)
(0.1964754401 1.092531442e-22 -1.092531442e-22)
(0.1964594561 -1.051969161e-22 -1.051969161e-22)
(0.196444461 3.504795706e-34 -3.504795706e-34)
(0.19643048 9.671849805e-23 9.671849805e-23)
(0.1964175387 0 9.229539759e-23)
(0.1964056624 0 -1.754983277e-22)
(0.1963948766 0 8.307944565e-23)
(0.1963852067 0 -5.432177572e-34)
(0.1963766783 -7.33683463e-23 -7.33683463e-23)
(0.1963693168 -2.37055068e-34 2.37055068e-34)
(0.1963631476 6.316012492e-23 6.316012492e-23)
(0.1963581961 -5.786917117e-23 5.786917117e-23)
(0.1963544878 -1.819963448e-34 -1.049070358e-22)
(0.196352048 4.691312318e-23 4.691312317e-23)
(0.196350902 0 -1.831778821e-38)
(0.196351075 -3.545817576e-23 -3.545817575e-23)
(0.1963525921 3.280018134e-39 -3.280018134e-39)
(0.1963554785 2.350494855e-23 2.350494855e-23)
(0.196359759 -1.734189293e-23 1.734189293e-23)
(0.1963654585 -7.670852701e-35 -2.210972759e-23)
(0.1963726018 4.644167538e-24 4.644167538e-24)
(0.1963812134 0 -2.622757613e-35)
(0.1963913177 8.546731275e-24 8.546731275e-24)
(0.1964029391 1.063458511e-34 -1.063458511e-34)
(0.1964161016 -2.222727496e-23 -2.222727496e-23)
(0.1964308293 2.924981921e-23 -2.924981921e-23)
(0.1964471457 1.26271835e-34 7.278609872e-23)
(0.1964650745 -4.365626998e-23 -4.365626998e-23)
(0.1964846389 0 -1.133287416e-38)
(0.1965058621 5.85396122e-23 5.85396122e-23)
(0.1965287668 7.345019245e-39 -7.345019245e-39)
(0.1965533756 -7.389311744e-23 -7.389311744e-23)
(0.1965797109 8.174381493e-23 -8.174381493e-23)
(0.1966077946 3.112309526e-34 1.794181704e-22)
(0.1966376484 -9.778781718e-23 -9.778781718e-23)
(0.1966692938 0 -7.354229565e-34)
(0.1967027518 1.142808885e-22 1.142808885e-22)
(0.196738043 -4.256620885e-34 -2.453853401e-22)
(0.196775188 -1.312128138e-22 1.312128138e-22)
(0.1968142068 1.398398801e-22 1.398398801e-22)
(0.196855119 5.15447442e-34 -5.15447442e-34)
(0.1968979437 -1.574086999e-22 -1.574086999e-22)
(0.1969426999 0 -1.154265909e-33)
(0.1969894059 1.753863062e-22 1.753863062e-22)
(0.1970380797 -6.401761029e-34 -3.690482074e-22)
(0.1970887388 -1.937588006e-22 1.937588006e-22)
(0.1971414003 2.030884868e-22 2.030884868e-22)
(0.1971960807 4.718696253e-38 -4.718696253e-38)
(0.197252796 -2.220248527e-22 -2.220248527e-22)
(0.1973115619 0 1.607083422e-33)
(0.1973723933 2.413165413e-22 2.413165413e-22)
(0.1974353048 -8.711438515e-34 -5.0218024e-22)
(0.1975003103 -2.609457727e-22 2.609457727e-22)
(0.1975674232 2.708810995e-22 2.708810995e-22)
(0.1976366561 -2.36312174e-55 2.36312174e-55)
(0.1977080214 -2.909808153e-22 -2.909808153e-22)
(0.1977815306 0 -2.089578832e-33)
(0.1978571945 3.113686339e-22 3.113686339e-22)
(0.1979350236 1.116066976e-33 -6.433276354e-22)
(0.1980150273 -3.320227645e-22 3.320227645e-22)
(0.1980972148 3.424425716e-22 3.424425716e-22)
(0.1981815942 1.224398946e-33 -1.224398946e-33)
(0.1982681732 -3.634527843e-22 -3.634527843e-22)
(0.1983569585 3.740370161e-22 -3.740370161e-22)
(0.1984479563 4.270692283e-38 7.69339527e-22)
(0.1985411719 -3.953477589e-22 -3.953477589e-22)
(0.19863661 0 -1.803302666e-37)
(0.1987342744 4.168260565e-22 4.168260565e-22)
(0.1988341681 1.483650524e-33 -1.483650524e-33)
(0.1989362933 -4.384443256e-22 -4.384443256e-22)
(0.1990406514 4.49297009e-22 -4.49297009e-22)
(0.1991472431 -1.596497565e-33 9.203476386e-22)
(0.199256068 -4.710709825e-22 -4.710709825e-22)
(0.199367125 0 -3.344547401e-33)
(0.1994804121 4.929109242e-22 4.929109242e-22)
(0.1995959264 -1.747954429e-33 1.747954429e-33)
(0.199713664 -5.147852529e-22 -5.147852529e-22)
(0.1998336203 5.257251344e-22 -5.257251344e-22)
(0.1999557895 1.861798623e-33 1.073322528e-21)
(0.200080165 -5.475893799e-22 -5.475893799e-22)
(0.2002067394 0 3.875284012e-33)
(0.200335504 5.694042001e-22 5.694042001e-22)
(0.2004664493 -1.28848498e-37 1.28848498e-37)
(0.2005995648 -5.911341749e-22 -5.911341749e-22)
(0.200734839 6.01955992e-22 -6.01955992e-22)
(0.2008722594 2.125946813e-33 1.225485684e-21)
(0.2010118123 -6.234900072e-22 -6.234900072e-22)
(0.2011534831 0 -4.400877554e-33)
(0.2012972561 6.448461016e-22 6.448461016e-22)
(0.2014431146 -2.274032654e-33 -1.310890575e-21)
(0.2015910408 -6.659853052e-22 6.659853052e-22)
(0.2017410157 6.764611343e-22 6.764611342e-22)
(0.2018930193 -1.525152668e-37 1.525152668e-37)
(0.2020470305 -6.971998685e-22 -6.971998685e-22)
(0.202203027 0 -4.909094632e-33)
(0.2023609856 7.176202254e-22 7.176202254e-22)
(0.2025208815 2.524870775e-33 -1.455395761e-21)
(0.2026826893 -7.376800826e-22 7.376800826e-22)
(0.202846382 7.475614425e-22 7.475614425e-22)
(0.2030119318 -2.627454807e-33 2.627454807e-33)
(0.2031793094 -7.669998375e-22 -7.669998375e-22)
(0.2033484845 0 5.388369361e-33)
(0.2035194257 7.8596903e-22 7.8596903e-22)
(0.2036921001 8.829201e-38 -1.590527453e-21)
(0.2038664739 -8.044243062e-22 8.044243062e-22)
(0.2040425121 8.134450843e-22 8.134450843e-22)
(0.2042201783 2.85317939e-33 -2.85317939e-33)
(0.204399435 -8.310443201e-22 -8.310443201e-22)
(0.2045802434 0 5.825786908e-33)
(0.2047625635 8.480152988e-22 8.480152988e-22)
(0.2049463543 -2.97052607e-33 -1.712501293e-21)
(0.2051315733 -8.643114275e-22 8.643114275e-22)
(0.2053181768 8.721917584e-22 8.721917584e-22)
(0.20550612 3.05252151e-33 -3.05252151e-33)
(0.2056953568 -8.873874441e-22 -8.873874441e-22)
(0.2058858399 0 -6.208562923e-33)
(0.2060775207 0 9.017903155e-22)
(0.2062703494 0 -1.817359164e-21)
(0.2064642751 0 9.153527993e-22)
(0.2066592456 9.21804006e-22 9.21804006e-22)
(0.2068552072 3.21984432e-33 -3.21984432e-33)
(0.2070521055 -9.34016555e-22 -9.34016555e-22)
(0.2072498844 9.397659975e-22 -9.397659975e-22)
(0.207448487 9.838478612e-33 1.890539259e-21)
(0.2076478549 -9.505215267e-22 -9.505215267e-22)
(0.2078479287 0 -4.243342501e-37)
(0.2080486476 9.602465159e-22 9.602465159e-22)
(0.2082499499 -3.346895621e-33 3.346895621e-33)
(0.2084517725 -9.688939702e-22 -9.688939702e-22)
(0.2086540512 9.72799059e-22 -9.72799059e-22)
(0.2088567208 3.387628204e-33 1.952834703e-21)
(0.2090597147 -9.797431235e-22 -9.797431235e-22)
(0.2092629655 0 -6.820214444e-33)
(0.2094664044 9.85494422e-22 9.854944221e-22)
(0.2096699617 3.42771629e-33 -3.42771629e-33)
(0.2098735665 -9.90008097e-22 -9.90008097e-22)
(0.2100771469 9.917870303e-22 -9.917870303e-22)
(0.2102806299 -3.4459942e-33 1.986480409e-21)
(0.2104839436 -9.943622208e-22 -9.943622208e-22)
(0.2106870051 0 -6.904784211e-33)
(0.2108897438 9.955923769e-22 9.955923769e-22)
(0.2110921037 6.909197524e-33 -6.909197524e-33)
(0.2112939892 -9.954590907e-22 -9.954590907e-22)
(0.2114950938 9.946501261e-22 -9.946501261e-22)
(0.211695113 3.445214878e-33 1.98603116e-21)
(0.2118940834 -9.906953728e-22 -9.906953728e-22)
(0.212092697 0 6.856658055e-33)
(0.2122912743 9.856345295e-22 9.856345295e-22)
(0.2124894371 -6.821023843e-33 -1.966026268e-21)
(0.212686925 -9.801932549e-22 9.801932549e-22)
(0.2128834402 9.770760597e-22 9.770760597e-22)
(0.2130786841 3.377603872e-33 -3.377603872e-33)
(0.213272357 -9.695394435e-22 -9.695394435e-22)
(0.2134641537 0 0)
(0.2136537556 9.595675888e-22 9.595675888e-22)
(0.2138408386 -3.307667427e-33 -1.906801471e-21)
(0.2140250981 -9.463050318e-22 9.463050318e-22)
(0.2142061293 9.381452626e-22 9.381452626e-22)
(0.2143845244 6.448719924e-33 -6.448719924e-33)
(0.2145609479 -9.204269542e-22 -9.204269542e-22)
(0.2147352304 0 0)
(0.2149073453 9.021796465e-22 9.021796465e-22)
(0.2150770644 -3.097617853e-33 -1.785655118e-21)
(0.2152440349 -8.830110686e-22 8.830110686e-22)
(0.215408035 8.726279232e-22 8.726279232e-22)
(0.2155689679 2.638455604e-55 -2.638455604e-55)
(0.2157267436 -8.501868514e-22 -8.501868514e-22)
(0.2158812535 0 -1.861004358e-37)
(0.2160323883 8.254897219e-22 8.254897219e-22)
(0.2161800411 -2.818188255e-33 -1.624574922e-21)
(0.2163241032 -7.98512127e-22 7.98512127e-22)
(0.2164644649 7.841608519e-22 7.841608518e-22)
(0.2166010154 8.540178315e-38 -8.540178315e-38)
(0.2167336433 -7.537195423e-22 -7.537195423e-22)
(0.2168622361 7.376242964e-22 -7.376242964e-22)
(0.2169866808 5.002544927e-33 1.441885406e-21)
(0.2171068634 -7.036724442e-22 -7.036724442e-22)
(0.2172226694 0 -3.045614101e-37)
(0.2173339836 6.67357289e-22 6.67357289e-22)
(0.2174406901 -4.498327314e-33 4.498327314e-33)
(0.2175426726 -6.286628919e-22 -6.286628919e-22)
(0.2176398143 6.084191119e-22 -6.084191119e-22)
(0.2177319978 -2.038562296e-33 1.175151155e-21)
(0.2178191053 -5.661309578e-22 -5.661309578e-22)
(0.2179010188 0 0)
(0.21797762 0 5.214339754e-22)
(0.2180487903 0 -1.72851897e-33)
(0.2181144107 0 -4.743208805e-22)
(0.2181743624 4.498567839e-22 -4.498567839e-22)
(0.2182285264 9.432171165e-38 8.495744509e-22)
(0.2182767835 -3.991121184e-22 -3.991121184e-22)
(0.2183190148 0 2.586790384e-33)
(0.2183551013 3.459459088e-22 3.459459088e-22)
(0.2183849241 2.209729926e-33 -2.209729926e-33)
(0.2184083646 -2.903615134e-22 -2.903615134e-22)
(0.2184253045 2.616644675e-22 -2.616644675e-22)
(0.2184356256 2.101300608e-78 4.647313527e-22)
(0.2184392104 -2.02466535e-22 -2.02466535e-22)
(0.2184359414 0 1.193272354e-33)
(0.2184257021 0 1.408739411e-22)
(0.2184083762 0 -2.183689005e-22)
(0.2183838481 0 7.690253739e-23)
(0.2183520029 4.403078789e-23 4.403078789e-23)
(0.2183127266 -2.3474657e-39 2.3474657e-39)
(0.2182659059 2.347059447e-23 2.347059447e-23)
(0.2182114283 0 4.031194852e-34)
(0.2181491823 -9.32938958e-23 -9.32938958e-23)
(0.2180790577 -4.477626343e-34 2.581341056e-22)
(0.2180009451 1.654090977e-22 -1.654090977e-22)
(0.2179147364 -2.023156037e-22 -2.023156037e-22)
(0.2178203247 -1.663767676e-33 1.663767676e-33)
(0.2177176045 2.778028896e-22 2.778028896e-22)
(0.2176064718 0 2.195281509e-33)
(0.2174868238 -3.554878611e-22 -3.554878611e-22)
(0.2173585595 -1.370874782e-33 7.902807972e-22)
(0.2172215796 4.353248736e-22 -4.353248736e-22)
(0.2170757865 -4.760348461e-22 -4.760348461e-22)
(0.2169210844 9.751636091e-55 -9.751636091e-55)
(0.2167573794 5.590040218e-22 5.590040218e-22)
(0.2165845798 0 4.172001886e-33)
(0.2164025958 -6.439903671e-22 -6.439903671e-22)
(0.2162113401 -1.525936382e-37 1.374441304e-21)
(0.2160107275 7.309314188e-22 -7.309314187e-22)
(0.2158006754 -7.751140817e-22 -7.751140817e-22)
(0.2155811039 -2.844112947e-33 2.844112947e-33)
(0.2153519355 8.648591924e-22 8.648591924e-22)
(0.2151130958 0 -1.263377174e-32)
(0.2148645132 -9.563810066e-22 -9.563810066e-22)
(0.2146061194 3.479215014e-33 2.005566726e-21)
(0.2143378493 1.04959948e-21 -1.04959948e-21)
(0.214059641 -1.096818562e-21 -1.096818562e-21)
(0.2137714367 -3.811715911e-37 3.811715911e-37)
(0.2134731819 1.19242083e-21 1.19242083e-21)
(0.2131648266 -1.240780834e-21 1.240780834e-21)
(0.2128463246 -8.94768592e-33 -2.578994878e-21)
(0.2125176343 1.33855827e-21 1.33855827e-21)
(0.2121787189 0 9.630534067e-33)
(0.2118295465 -1.437661568e-21 -1.437661568e-21)
(0.2114700904 -5.161088705e-33 5.161088705e-33)
(0.2111003296 1.537985599e-21 1.537985599e-21)
(0.210720249 0 1.588571229e-21)
(0.2103298397 0 -3.278840931e-21)
(0.2099290997 0 1.690518854e-21)
(0.2095180341 0 2.417304775e-32)
(0.2090966557 -1.793403893e-21 -1.793403893e-21)
(0.2086649856 -6.401685757e-33 6.401685757e-33)
(0.2082230534 1.89710536e-21 1.89710536e-21)
(0.2077708987 -1.949223358e-21 1.949223358e-21)
(0.2073085708 -6.944314464e-33 -4.002996644e-21)
(0.2068361304 2.05391408e-21 2.05391408e-21)
(0.2063536498 0 1.461739813e-32)
(0.2058612144 -2.15910234e-21 -2.15910234e-21)
(0.2053589235 -7.674112639e-33 7.674112639e-33)
(0.2048468915 2.264655184e-21 2.264655184e-21)
(0.2043252492 -2.317526149e-21 2.317526149e-21)
(0.2037941456 -8.223580589e-33 -4.740874869e-21)
(0.2032537489 2.423371918e-21 2.423371918e-21)
(0.2027042489 0 1.718286925e-32)
(0.2021458587 -2.529241805e-21 -2.529241805e-21)
(0.2015788168 9.308401347e-79 5.164285768e-21)
(0.20100339 2.634998572e-21 -2.634998572e-21)
(0.2004198754 0 -2.687791862e-21)
(0.1998286042 0 0)
(0.1992299442 0 2.793123938e-21)
(0.1986243042 0 -1.974552143e-32)
(0.1980121377 -2.898006448e-21 -2.898006448e-21)
(0.1973939474 1.023569684e-32 5.900477501e-21)
(0.1967702906 3.002310863e-21 -3.002310863e-21)
(0.1961417838 -3.054207602e-21 -3.054207602e-21)
(0.19550911 -1.077545978e-32 1.077545978e-32)
(0.1948730244 3.157416422e-21 3.157416422e-21)
(0.1942343626 0 4.452823905e-32)
(0.1935940481 -3.259753071e-21 -3.259753071e-21)
(0.1929531017 -3.675461709e-37 6.621123193e-21)
(0.1923126515 3.361113893e-21 -3.361113893e-21)
(0.1916739434 0 -3.411398369e-21)
(0.1910383529 0 3.842930337e-37)
(0.1904073987 0 3.511119888e-21)
(0.1897827562 0 4.941078031e-32)
(0.189166273 -3.609641706e-21 -3.609641706e-21)
(0.1885599858 -1.269271858e-32 7.316854101e-21)
(0.1879661382 3.706881241e-21 -3.706881241e-21)
(0.1873872001 -3.75499282e-21 -3.75499282e-21)
(0.1868258887 -1.319301385e-32 1.319301385e-32)
(0.1862851901 3.850135166e-21 3.850135166e-21)
(0.1857683835 -3.897133731e-21 3.897133731e-21)
(0.1852790648 -2.736507882e-32 -7.887446961e-21)
(0.1848211762 3.989877659e-21 3.989877659e-21)
(0.1843990278 0 5.600648205e-32)
(0.1840173255 -4.080738909e-21 -4.080738909e-21)
(0.1836812031 -1.431360719e-32 1.431360719e-32)
(0.1833962488 4.169337751e-21 4.169337751e-21)
(0.1831685323 -4.212612616e-21 4.212612616e-21)
(0.183004631 -1.476369988e-32 -8.51014889e-21)
(0.1829116591 4.296596012e-21 4.296596012e-21)
(0.1828972921 0 3.009412583e-32)
(0.1829697854 -4.376157086e-21 -4.376157086e-21)
(0.1831379951 -4.593908186e-32 4.593908186e-32)
(0.1834113943 4.449592266e-21 4.449592266e-21)
(0.1838000857 -4.483280909e-21 4.483280909e-21)
(0.1843148108 -1.56626388e-32 -9.028896544e-21)
(0.1849669554 4.54263691e-21 4.54263691e-21)
(0.1857685523 0 3.169213377e-32)
(0.1867322805 -4.587886074e-21 -4.587886074e-21)
(0.1878714627 -3.194327402e-32 3.194327402e-32)
(0.1892000615 4.613872297e-21 4.613872297e-21)